//mumax 3.10 [windows_amd64 go1.11.6(gc) CUDA-11.0]
//GPU info: NVIDIA GeForce RTX 3050 6GB Laptop GPU(6143MB), CUDA Driver 12.5, cc=8.6, using cc=80 PTX
//(c) Arne Vansteenkiste, Dynamat LAB, Ghent University, Belgium
//This is free software without any warranty. See license.txt
//********************************************************************//
//  If you use mumax in any work or publication,                      //
//  we kindly ask you to cite the references in references.bib        //
//********************************************************************//
//output directory: .\Example04c.out/
Aex = 12e-12
Msat = 1e6
Ku1 = 0.6e6
AnisU = vector(0, 0, 1)
Dbulk = 0
Dind = 2e-3
alpha = 0.05
xi = 0.2
SetGridsize(256, 256, 1)
SetCellsize(4e-9, 4e-9, 1e-9)
B_ext = vector(0, 0, 0)
Temp = 0.0
SetSolver(5)
Dbulk = 2e-3
Dind = 0
m = Uniform(0, 0, 1)
sk_transl_pos := -400e-9
sk_delta := 150e-9
for i := 0; i < 5; i++ {
	m.setInShape(cylinder(50e-9, inf).transl(sk_transl_pos+sk_delta*i, 0, 0), BlochSkyrmion(1, -1).scale(1, 1, 1).transl(sk_transl_pos+sk_delta*i, 0, 0))
}
B_ext = vector(0, 0, 0.2)
j = vector(-1e12, 0, 0)
AutoSnapshot(m, 0.5e-9)
RunWhile(MaxTorque > 5e-3)
//********************************************************************//
//Please cite the following references, relevant for your simulation. //
//See bibtex file in output folder for justification.                 //
//********************************************************************//
//   * Vansteenkiste et al., AIP Adv. 4, 107133 (2014).
