//mumax 3.10 [windows_amd64 go1.11.6(gc) CUDA-11.0]
//GPU info: NVIDIA GeForce RTX 3050 6GB Laptop GPU(6143MB), CUDA Driver 12.5, cc=8.6, using cc=80 PTX
//(c) Arne Vansteenkiste, Dynamat LAB, Ghent University, Belgium
//This is free software without any warranty. See license.txt
//********************************************************************//
//  If you use mumax in any work or publication,                      //
//  we kindly ask you to cite the references in references.bib        //
//********************************************************************//
//output directory: .\Petrovic_reprod.out/
SetGridsize(512, 512, 30)
SetCellsize(2e-9, 2e-9, 1e-9)
SetPBC(0, 0, 2)
//resizing...
Msat.SetRegion(0, 0)
Msat.SetRegion(1, 1e6)
Msat.SetRegion(2, 0)
Aex.SetRegion(1, 1.3e-11)
Ku1.SetRegion(1, 5e5)
AnisU.SetRegion(1, vector(0, 0, 1))
Dbulk.SetRegion(1, 0)
Dind.SetRegion(1, 2e-3)
alpha.SetRegion(1, 0.1)
num_layers := 10
for i := 0; i < num_layers; i++ {
	defRegion(0, layer(3*i))
	defRegion(1, layer(3*i+1))
	defRegion(2, layer(3*i+2))
}
B_ext = vector(0, 0, 0.1)
Temp = 5.5
SetSolver(5)
m = RandomMagSeed(92238196)
sk_transl_pos := -400e-9
sk_delta := 150e-9
Relax()
//********************************************************************//
//Please cite the following references, relevant for your simulation. //
//See bibtex file in output folder for justification.                 //
//********************************************************************//
//   * Mulkers et al., Phys. Rev. B 95, 144401 (2017).
//   * Vansteenkiste et al., AIP Adv. 4, 107133 (2014).
