# t (s)	mx ()	my ()	mz ()	B_extx (T)	B_exty (T)	B_extz (T)	E_total (J)	E_anis (J)	E_demag (J)	E_exch (J)	E_Zeeman (J)	ext_topologicalcharge ()	Temp (K)	LastErr ()
0	0	0	1	0	0	0.400001	-7.842518e-16	-5.415787e-16	5.4018234e-16	-0	-7.6056634e-16	0	600	0
1.0022409208591561e-11	-0.00063995866	-0.0010495946	0.69153655	0	0	0.400001	6.827963e-15	-3.0593266e-16	3.3652158e-16	7.322125e-15	-5.2596e-16	-7.218315	600	2.4418068e-05
2.0035319791362414e-11	0.0004945743	0.0004138362	0.57570505	0	0	0.400001	8.233838e-15	-2.5951327e-16	2.8329197e-16	8.6458576e-15	-4.3786233e-16	-19.999716	600	2.554506e-05
3.00262449862805e-11	-0.0003105065	0.001712057	0.4984773	0	0	0.400001	8.899749e-15	-2.3682917e-16	2.5483166e-16	9.256224e-15	-3.7912544e-16	-17.789705	600	3.6563786e-05
4.0014304462681656e-11	-0.0017947329	0.00073663215	0.4412713	0	0	0.400001	9.293417e-15	-2.2354624e-16	2.3695715e-16	9.610343e-15	-3.3561648e-16	-39.43734	600	5.4766362e-05
5.003041898858174e-11	-0.0013390156	0.00016842151	0.39773908	0	0	0.400001	9.52932e-15	-2.1527397e-16	2.2534425e-16	9.831738e-15	-3.0250726e-16	-27.54376	600	3.2820397e-05
6.003001620241467e-11	-0.0010826795	-0.0018565464	0.36370975	0	0	0.400001	9.7163226e-15	-2.0968708e-16	2.177328e-16	9.986544e-15	-2.766257e-16	-38.233387	600	2.9155066e-05
7.003357863324419e-11	-0.001604015	-0.0025503011	0.33692035	0	0	0.400001	9.8621274e-15	-2.053958e-16	2.1182401e-16	1.0097944e-14	-2.5625057e-16	-36.654675	600	2.7530197e-05
8.003455612180158e-11	0.00010149789	-0.0020165716	0.3140535	0	0	0.400001	9.993751e-15	-2.02687e-16	2.0719354e-16	1.0210468e-14	-2.388588e-16	-34.681362	600	2.5369594e-05
9.00234015997766e-11	0.0013676947	0.0008496396	0.2971686	0	0	0.400001	1.0055105e-14	-2.0062084e-16	2.0401886e-16	1.0279057e-14	-2.2601666e-16	-24.116882	600	2.6885074e-05
1.0001025420447747e-10	0.0015313242	0.003278381	0.2834079	0	0	0.400001	1.01214694e-14	-1.9855849e-16	2.0163803e-16	1.033801e-14	-2.1555073e-16	-28.697916	600	2.57792e-05
1.1001844928557846e-10	-0.00050945434	0.004730699	0.2720898	0	0	0.400001	1.0171024e-14	-1.9729788e-16	1.9951734e-16	1.0368344e-14	-2.0694256e-16	-14.801691	600	2.7793383e-05
1.200711766656874e-10	-0.0034219997	0.004588384	0.26302028	0	0	0.400001	1.0183433e-14	-1.966197e-16	1.9841874e-16	1.0382372e-14	-2.0004459e-16	-24.569565	600	3.052347e-05
1.3000121979805298e-10	-0.0033716727	0.0015363642	0.2562629	0	0	0.400001	1.0195645e-14	-1.9596449e-16	1.9713998e-16	1.0392139e-14	-1.9490517e-16	-26.174944	600	3.4674576e-05
1.4006087439238013e-10	-0.0052537015	0.00040194864	0.25016463	0	0	0.400001	1.0231409e-14	-1.9525471e-16	1.9641122e-16	1.0427741e-14	-1.90267e-16	-15.707374	600	3.4159322e-05
1.5000357803408127e-10	-0.0034183697	-0.0030977344	0.2464551	0	0	0.400001	1.0249504e-14	-1.949361e-16	1.9566294e-16	1.0429942e-14	-1.8744564e-16	-28.49771	600	3.1797197e-05
1.6005650201348751e-10	-0.00053000957	-0.0048237983	0.24294609	0	0	0.400001	1.0239795e-14	-1.9489639e-16	1.9561057e-16	1.04504714e-14	-1.8477682e-16	-33.60398	600	5.4227792e-05
1.700157468395606e-10	0.001219846	-0.0026309895	0.23954542	0	0	0.400001	1.02833374e-14	-1.9443812e-16	1.9494925e-16	1.0463154e-14	-1.8219038e-16	-28.93866	600	2.8285784e-05
1.8004966174970356e-10	0.0017053253	0.00010879431	0.23800528	0	0	0.400001	1.0286092e-14	-1.9440783e-16	1.945797e-16	1.04590315e-14	-1.81019e-16	-13.226716	600	3.3663346e-05
1.9004310125579953e-10	0.0015036288	0.0018150855	0.2359082	0	0	0.400001	1.0273951e-14	-1.9389402e-16	1.9436091e-16	1.0465853e-14	-1.7942404e-16	-29.933945	600	4.214208e-05
2.0003751038272286e-10	-5.0913135e-05	0.0020564895	0.23455188	0	0	0.400001	1.0306579e-14	-1.9371673e-16	1.9392667e-16	1.0481744e-14	-1.7839243e-16	-33.62082	600	4.2615164e-05
2.1006377681665025e-10	-0.000384147	0.0026784523	0.23385723	0	0	0.400001	1.0287997e-14	-1.9387033e-16	1.9410567e-16	1.047628e-14	-1.7786413e-16	-20.941015	600	4.2533262e-05
2.2004381661422266e-10	-0.0012438322	0.0019957228	0.23363891	0	0	0.400001	1.0302461e-14	-1.9353088e-16	1.9394318e-16	1.0488373e-14	-1.7769809e-16	-41.32039	600	2.4823186e-05
2.3000841804418553e-10	-0.0025700063	0.00034305133	0.23291579	0	0	0.400001	1.0288743e-14	-1.9375001e-16	1.9368022e-16	1.0480724e-14	-1.7714811e-16	-31.101849	600	3.077995e-05
2.4002567088172345e-10	-0.0019265979	-0.0009524827	0.2322048	0	0	0.400001	1.0296353e-14	-1.9371291e-16	1.9325505e-16	1.0479599e-14	-1.7660736e-16	-30.60305	600	3.1544634e-05
2.5007232943142524e-10	0.0005294294	-0.0014590597	0.23182806	0	0	0.400001	1.0298694e-14	-1.9364895e-16	1.9354463e-16	1.0487203e-14	-1.7632081e-16	-33.00436	600	4.4328663e-05
2.600794023906058e-10	0.0007198014	0.00031814576	0.23200521	0	0	0.400001	1.0305575e-14	-1.9345736e-16	1.9326036e-16	1.04815245e-14	-1.7645554e-16	-24.986025	600	3.159115e-05
2.700335012778258e-10	-0.00058204733	0.0005583779	0.23244236	0	0	0.400001	1.0301902e-14	-1.9351405e-16	1.934627e-16	1.0481046e-14	-1.7678804e-16	-33.033478	600	3.5093162e-05
2.800728735303512e-10	-0.00066796853	-0.00046434064	0.23177214	0	0	0.400001	1.0293225e-14	-1.9323601e-16	1.9358311e-16	1.0476447e-14	-1.7627828e-16	-34.08421	600	3.4497407e-05
2.900599446578391e-10	-0.0007120789	-0.0004002076	0.23165783	0	0	0.400001	1.0297284e-14	-1.9351226e-16	1.9384947e-16	1.0482152e-14	-1.7619136e-16	-30.07196	600	3.5889316e-05
3.0007064790327657e-10	0.0006226445	-0.00046165742	0.23311387	0	0	0.400001	1.031493e-14	-1.9372313e-16	1.9392126e-16	1.0476873e-14	-1.7729877e-16	-33.885227	600	2.7504051e-05
3.100475599149893e-10	-4.920295e-05	0.00022732402	0.23220403	0	0	0.400001	1.0316551e-14	-1.937335e-16	1.9393725e-16	1.04774825e-14	-1.7660678e-16	-23.38902	600	4.698241e-05
3.2001823313490293e-10	-0.0016860646	-0.00051681756	0.23070176	0	0	0.400001	1.0299924e-14	-1.9357421e-16	1.9315619e-16	1.0476848e-14	-1.7546419e-16	-33.42246	600	2.846949e-05
3.3005128201539974e-10	-0.00060783	-0.0013099916	0.23078403	0	0	0.400001	1.0305075e-14	-1.9341895e-16	1.933391e-16	1.0477181e-14	-1.7552673e-16	-23.861538	600	3.4276192e-05
3.400343953527559e-10	-0.000912995	-0.0008900609	0.23027222	0	0	0.400001	1.03007135e-14	-1.929216e-16	1.9296365e-16	1.0477591e-14	-1.7513752e-16	-34.257183	600	2.431279e-05
3.5001679642061455e-10	0.00015016508	-0.0015894601	0.22980022	0	0	0.400001	1.0290421e-14	-1.9326289e-16	1.9326966e-16	1.0475129e-14	-1.747785e-16	-37.752693	600	4.3119693e-05
3.6006721344964053e-10	0.00039961422	-0.00064372626	0.22866137	0	0	0.400001	1.03274196e-14	-1.9302958e-16	1.9310985e-16	1.0502164e-14	-1.7391233e-16	-46.43544	600	2.4882698e-05
3.7000333666772514e-10	0.00057757227	-0.00018607416	0.2284579	0	0	0.400001	1.0332872e-14	-1.9321467e-16	1.9319362e-16	1.0504378e-14	-1.7375756e-16	-19.517767	600	4.0038787e-05
3.800122250998261e-10	-0.00029061973	0.00097575143	0.22772154	0	0	0.400001	1.0319786e-14	-1.9316874e-16	1.9320173e-16	1.0504451e-14	-1.7319753e-16	-33.11241	600	3.554858e-05
3.900617131696954e-10	-0.001913162	0.0012167606	0.22650942	0	0	0.400001	1.0343304e-14	-1.9338008e-16	1.9265248e-16	1.05016305e-14	-1.7227564e-16	-35.02549	600	3.0480101e-05
4.0003638435912116e-10	-0.0017858413	-0.00014729022	0.22673102	0	0	0.400001	1.0318252e-14	-1.9342217e-16	1.9310214e-16	1.0495268e-14	-1.7244417e-16	-29.5989	600	2.4466233e-05
4.100075259633497e-10	-0.0021638572	-0.001981354	0.22812107	0	0	0.400001	1.0323617e-14	-1.9348967e-16	1.9302221e-16	1.0494793e-14	-1.735014e-16	-27.536987	600	4.3858097e-05
4.200406001692223e-10	-0.0008784122	-0.0015345266	0.22869068	0	0	0.400001	1.02983545e-14	-1.9345448e-16	1.9313541e-16	1.04827485e-14	-1.7393463e-16	-29.160385	600	3.1017622e-05
4.30044632044833e-10	0.00060687785	-0.0027442898	0.2287881	0	0	0.400001	1.0311077e-14	-1.9363636e-16	1.9332206e-16	1.0485242e-14	-1.7400869e-16	-24.86254	600	2.9354353e-05
4.40021319638865e-10	0.0010223421	-0.0018154306	0.22873819	0	0	0.400001	1.0319205e-14	-1.9334659e-16	1.9333531e-16	1.0488252e-14	-1.7397073e-16	-31.473269	600	4.1998144e-05
4.5001839971761576e-10	0.0020890662	-6.685416e-05	0.22730333	0	0	0.400001	1.03361745e-14	-1.9333342e-16	1.9299811e-16	1.0495503e-14	-1.7287945e-16	-39.4095	600	2.4199831e-05
4.6003314133905687e-10	0.0024903347	0.0009930609	0.22770397	0	0	0.400001	1.0332919e-14	-1.9307693e-16	1.9317762e-16	1.0488551e-14	-1.7318417e-16	-25.698214	600	3.3761233e-05
4.700522341455083e-10	0.0023539881	0.0013316484	0.22673112	0	0	0.400001	1.0321977e-14	-1.9292913e-16	1.9312873e-16	1.0494128e-14	-1.7244425e-16	-19.881739	600	3.906753e-05
4.800561754894293e-10	0.0016371817	0.0018630688	0.22675838	0	0	0.400001	1.0319813e-14	-1.929587e-16	1.9306516e-16	1.0496053e-14	-1.7246497e-16	-31.355228	600	2.8717743e-05
4.900534891767206e-10	-0.0008989109	0.002821666	0.22760051	0	0	0.400001	1.0313879e-14	-1.9298886e-16	1.9308831e-16	1.04875605e-14	-1.7310548e-16	-24.867996	600	2.7809398e-05
5.000695628115961e-10	-0.0012986877	0.0014103875	0.22775309	0	0	0.400001	1.03083884e-14	-1.9321216e-16	1.9294747e-16	1.0481506e-14	-1.7322153e-16	-46.36099	600	2.6871932e-05
5.100720848893832e-10	-0.002376713	0.00090408174	0.22889262	0	0	0.400001	1.0316711e-14	-1.9339501e-16	1.9309136e-16	1.0484574e-14	-1.7408822e-16	-19.24076	600	2.2740112e-05
5.200563225484564e-10	-0.00020705382	-0.00024196255	0.22826706	0	0	0.400001	1.0309358e-14	-1.9347965e-16	1.9327431e-16	1.0489252e-14	-1.7361244e-16	-21.203978	600	3.258734e-05
5.300238604770032e-10	0.00085629453	-0.00034906282	0.22873406	0	0	0.400001	1.0329748e-14	-1.9327087e-16	1.9312269e-16	1.0482219e-14	-1.7396762e-16	-22.783567	600	2.3753068e-05
5.40050329822487e-10	-0.00025050296	0.0002917002	0.22841194	0	0	0.400001	1.0291433e-14	-1.9342786e-16	1.9349071e-16	1.0479981e-14	-1.7372263e-16	-32.185528	600	4.4012366e-05
5.500097607545959e-10	2.2951193e-05	0.0006960422	0.22828193	0	0	0.400001	1.0318933e-14	-1.9332606e-16	1.9316508e-16	1.0491117e-14	-1.7362374e-16	-41.025356	600	3.0466916e-05
5.600348894618104e-10	0.00021564793	0.00071442325	0.22902825	0	0	0.400001	1.0314615e-14	-1.934575e-16	1.93288e-16	1.04820785e-14	-1.7419136e-16	-37.1528	600	2.7387998e-05
5.700776606902166e-10	-0.0005339481	0.0016963191	0.22837777	0	0	0.400001	1.0311394e-14	-1.9333415e-16	1.9324346e-16	1.0486529e-14	-1.7369665e-16	-21.404531	600	3.792425e-05
5.800689069522993e-10	-0.001448706	0.0015491281	0.22970438	0	0	0.400001	1.0299848e-14	-1.9331603e-16	1.9325935e-16	1.04845255e-14	-1.747056e-16	-29.930187	600	3.7345133e-05
5.900712194804975e-10	-0.0017170375	0.0010526854	0.23090623	0	0	0.400001	1.03153544e-14	-1.9339353e-16	1.9330443e-16	1.0484838e-14	-1.7561971e-16	-13.309177	600	3.0088398e-05
6.000206724192506e-10	-0.003163099	-0.0010355032	0.23084451	0	0	0.400001	1.0306598e-14	-1.9376726e-16	1.9374152e-16	1.0478312e-14	-1.7557278e-16	-19.822899	600	6.191235e-05
6.100782524050275e-10	-0.0005691255	-0.0027080032	0.23052157	0	0	0.400001	1.0334434e-14	-1.9321023e-16	1.929942e-16	1.0484155e-14	-1.7532715e-16	-33.36378	600	2.5051126e-05
6.200039109329179e-10	0.0012208845	-0.003192865	0.2299924	0	0	0.400001	1.0310715e-14	-1.9356494e-16	1.9337783e-16	1.0483227e-14	-1.7492466e-16	-22.668093	600	3.257453e-05
6.300009291388508e-10	0.0022248146	-0.0006183067	0.22993669	0	0	0.400001	1.0299478e-14	-1.9342296e-16	1.9359248e-16	1.0474159e-14	-1.7488229e-16	-34.342377	600	3.2381653e-05
6.400526642558328e-10	0.0021031182	0.00061949115	0.22939539	0	0	0.400001	1.0328853e-14	-1.9340381e-16	1.9308611e-16	1.0489561e-14	-1.7447059e-16	-16.255678	600	3.3284992e-05
6.500563542977757e-10	0.0005037301	0.003763305	0.22756934	0	0	0.400001	1.0313041e-14	-1.9311627e-16	1.9289996e-16	1.0496618e-14	-1.7308176e-16	-34.026566	600	3.3780605e-05
6.600455223434078e-10	-0.0010543301	0.003986704	0.22752912	0	0	0.400001	1.03204426e-14	-1.933055e-16	1.9315423e-16	1.0493897e-14	-1.7305119e-16	-21.106173	600	2.4762838e-05
6.700361634906533e-10	-0.0021041054	0.0025818285	0.22740455	0	0	0.400001	1.0322266e-14	-1.9333769e-16	1.9303144e-16	1.0489289e-14	-1.7295641e-16	-37.094116	600	2.7069458e-05
6.800648623099908e-10	-0.0018528668	0.00056135445	0.22645737	0	0	0.400001	1.0321285e-14	-1.9297973e-16	1.9277578e-16	1.0501531e-14	-1.7223605e-16	-29.344816	600	2.524691e-05
6.900123878682052e-10	-0.000506797	7.789009e-05	0.22682586	0	0	0.400001	1.03235054e-14	-1.9297164e-16	1.9273332e-16	1.0487728e-14	-1.725163e-16	-33.59884	600	3.648621e-05
7.000597193692257e-10	0.00093079696	-0.00083832146	0.22867371	0	0	0.400001	1.0332352e-14	-1.93387e-16	1.9336905e-16	1.0482647e-14	-1.7392173e-16	-24.201775	600	2.9544966e-05
7.100466274906394e-10	0.0026283562	0.00045786574	0.22771496	0	0	0.400001	1.0317145e-14	-1.9336993e-16	1.9307187e-16	1.0482833e-14	-1.7319251e-16	-36.967613	600	3.7841368e-05
7.200828637845387e-10	-3.7092803e-05	0.0009582505	0.2265319	0	0	0.400001	1.0340791e-14	-1.9295812e-16	1.9250976e-16	1.0496291e-14	-1.7229274e-16	-23.23443	600	3.2805565e-05
7.30045281140262e-10	-0.0008645002	0.0008336367	0.22743818	0	0	0.400001	1.0312437e-14	-1.9356074e-16	1.9314085e-16	1.0494117e-14	-1.7298205e-16	-18.97304	600	3.250322e-05
7.400075943638045e-10	-0.00025632908	-0.0003750211	0.2277248	0	0	0.400001	1.0298613e-14	-1.929028e-16	1.9298828e-16	1.0487111e-14	-1.7320001e-16	-25.20824	600	3.0293542e-05
7.500644753780795e-10	-0.00020717416	-0.0025269848	0.22862716	0	0	0.400001	1.0317097e-14	-1.9320585e-16	1.9311693e-16	1.0491724e-14	-1.7388632e-16	-39.838245	600	2.5393963e-05
7.60074247939704e-10	0.0018856745	-0.0014511541	0.22876868	0	0	0.400001	1.0310308e-14	-1.9342854e-16	1.9300272e-16	1.0490607e-14	-1.7399393e-16	-35.604855	600	3.437398e-05
7.700499038742538e-10	0.0026860437	0.0010534794	0.22877073	0	0	0.400001	1.0331114e-14	-1.9322607e-16	1.9304883e-16	1.0496053e-14	-1.7399551e-16	-38.598713	600	2.5515095e-05
7.80069476504146e-10	0.0020315992	0.0034164684	0.22827135	0	0	0.400001	1.0300338e-14	-1.9309678e-16	1.9291275e-16	1.0486444e-14	-1.736157e-16	-31.902586	600	2.4183784e-05
7.900438554488118e-10	0.00033248146	0.0032016328	0.22983101	0	0	0.400001	1.0284604e-14	-1.9349693e-16	1.933578e-16	1.0466421e-14	-1.7480195e-16	-32.347202	600	3.173528e-05
8.000319617270251e-10	-0.00041966097	0.0016963868	0.22874138	0	0	0.400001	1.0300765e-14	-1.9323782e-16	1.9311887e-16	1.04850405e-14	-1.7397318e-16	-29.145302	600	3.0800682e-05
8.100420683653838e-10	-0.0021493866	0.0006856269	0.22958359	0	0	0.400001	1.030971e-14	-1.9366593e-16	1.9364179e-16	1.048945e-14	-1.7461374e-16	-40.172157	600	2.9828203e-05
8.200533791892881e-10	-0.0028301692	-0.0019924964	0.22832303	0	0	0.400001	1.0301642e-14	-1.9330823e-16	1.9319625e-16	1.0495461e-14	-1.7365502e-16	-18.547266	600	2.3557912e-05
8.300164413565534e-10	-0.0008010032	-0.0020380516	0.2294422	0	0	0.400001	1.0326319e-14	-1.9336255e-16	1.9310813e-16	1.04879645e-14	-1.7450622e-16	-19.918503	600	3.7019337e-05
8.40067520699901e-10	0.0006244392	-0.0027427264	0.23177537	0	0	0.400001	1.0309251e-14	-1.9396534e-16	1.938554e-16	1.0475627e-14	-1.7628075e-16	-8.770259	600	3.266098e-05
8.500720348805595e-10	0.0026690455	-0.0015599506	0.23060445	0	0	0.400001	1.0306871e-14	-1.9373052e-16	1.9373261e-16	1.04790774e-14	-1.7539018e-16	-20.458155	600	3.77916e-05
8.600530370699329e-10	0.002646672	-0.001063469	0.2296004	0	0	0.400001	1.0310488e-14	-1.9340767e-16	1.9338783e-16	1.0479786e-14	-1.7462652e-16	-28.41538	600	2.3369574e-05
8.700025292403692e-10	0.002372937	0.0018912985	0.22863595	0	0	0.400001	1.0310485e-14	-1.9347309e-16	1.9315566e-16	1.04823554e-14	-1.7389299e-16	-24.845177	600	3.496932e-05
8.800419920940806e-10	0.0003747499	0.0024644062	0.22766553	0	0	0.400001	1.0331818e-14	-1.9337932e-16	1.9324726e-16	1.0490225e-14	-1.7315495e-16	-21.19592	600	4.6761474e-05
8.900469591873201e-10	-0.0012517243	0.0011976236	0.22840168	0	0	0.400001	1.0297741e-14	-1.9313722e-16	1.9348112e-16	1.048544e-14	-1.7371481e-16	-34.413624	600	4.038738e-05
9.000092598160596e-10	-0.0005328675	-0.00024886048	0.22796991	0	0	0.400001	1.0319051e-14	-1.9335019e-16	1.9326237e-16	1.0489231e-14	-1.7338641e-16	-25.9299	600	3.5486013e-05
9.100543386839907e-10	0.00036091666	-0.0016594984	0.22685315	0	0	0.400001	1.0319271e-14	-1.9320365e-16	1.9272928e-16	1.0496264e-14	-1.7253705e-16	-37.35812	600	3.8000813e-05
9.200839316691753e-10	0.0019779112	-0.00063812453	0.22804728	0	0	0.400001	1.02956245e-14	-1.9320246e-16	1.9325505e-16	1.0489288e-14	-1.7344528e-16	-17.56319	600	3.0589337e-05
9.300703851827302e-10	0.0027252063	0.0010656979	0.22850057	0	0	0.400001	1.0323445e-14	-1.9331182e-16	1.931274e-16	1.0491725e-14	-1.7379e-16	-26.726612	600	3.8330916e-05
9.400199756438691e-10	0.0008663064	0.0036695364	0.22942668	0	0	0.400001	1.0319223e-14	-1.9327974e-16	1.9298866e-16	1.049095e-14	-1.744944e-16	-18.673285	600	4.1831114e-05
9.500671136488338e-10	-0.00075113703	0.0033396215	0.22989658	0	0	0.400001	1.0304815e-14	-1.9368041e-16	1.932614e-16	1.0489958e-14	-1.7485181e-16	-33.907124	600	4.068011e-05
9.600364270205936e-10	-0.0022239937	0.0027271528	0.22884738	0	0	0.400001	1.0307702e-14	-1.9332844e-16	1.929389e-16	1.049901e-14	-1.740538e-16	-39.1296	600	4.697756e-05
9.700322360376924e-10	-0.003873008	0.0020845672	0.22920978	0	0	0.400001	1.0325168e-14	-1.9352266e-16	1.9308324e-16	1.04921954e-14	-1.7432943e-16	-29.338259	600	2.788979e-05
9.800780207450536e-10	-0.0026776493	0.0003321119	0.23056845	0	0	0.400001	1.0309776e-14	-1.9370172e-16	1.9364625e-16	1.0474807e-14	-1.753628e-16	-21.364256	600	3.1176132e-05
9.900568757956806e-10	-0.0024477374	-0.0014230231	0.23075244	0	0	0.400001	1.0295724e-14	-1.9358462e-16	1.9363298e-16	1.0484201e-14	-1.7550274e-16	-17.108547	600	3.431404e-05
1.000010111685846e-09	-0.0012369439	-0.003659885	0.22810128	0	0	0.400001	1.0322708e-14	-1.9327313e-16	1.931302e-16	1.0485723e-14	-1.7348636e-16	-34.30416	600	4.201003e-05
1.0100607596156249e-09	0.00068857905	-0.0033238681	0.22866799	0	0	0.400001	1.0319615e-14	-1.9364057e-16	1.9348554e-16	1.04761425e-14	-1.7391737e-16	-26.50588	600	3.8263588e-05
1.0200792590991464e-09	0.002316107	-0.0024583957	0.22805014	0	0	0.400001	1.03362905e-14	-1.9326982e-16	1.9323516e-16	1.0485904e-14	-1.7344745e-16	-24.044245	600	5.9812795e-05
1.0300283197922831e-09	0.0038762162	0.00041299776	0.22649653	0	0	0.400001	1.0330257e-14	-1.9341398e-16	1.9307682e-16	1.0499448e-14	-1.7226583e-16	-33.03028	600	2.834408e-05
1.0400114033082828e-09	0.0022978478	0.0036382694	0.22603339	0	0	0.400001	1.0324582e-14	-1.9283024e-16	1.9272754e-16	1.0493906e-14	-1.7191358e-16	-40.110134	600	3.305662e-05
1.0500517398183913e-09	-0.00052309036	0.0034002678	0.22668478	0	0	0.400001	1.03261795e-14	-1.9353135e-16	1.9308733e-16	1.0502579e-14	-1.7240899e-16	-20.73632	600	2.3967861e-05
1.0600173041687328e-09	-0.0021651755	0.001749029	0.22873554	0	0	0.400001	1.0314851e-14	-1.9350492e-16	1.9345628e-16	1.0496978e-14	-1.7396872e-16	-37.643623	600	2.550595e-05
1.0700021564293222e-09	-0.0027177867	0.0012874769	0.2291622	0	0	0.400001	1.0321841e-14	-1.9359467e-16	1.934869e-16	1.0492461e-14	-1.7429322e-16	-39.517258	600	3.794432e-05
1.0800215719742118e-09	-0.0021343413	-0.0004639746	0.22726293	0	0	0.400001	1.033785e-14	-1.930843e-16	1.9279437e-16	1.05034635e-14	-1.728487e-16	-33.528473	600	3.651732e-05
1.0900753388792637e-09	7.510146e-05	-0.0021695052	0.22685951	0	0	0.400001	1.0333795e-14	-1.9331889e-16	1.9310202e-16	1.04939285e-14	-1.7254191e-16	-19.397642	600	3.165596e-05
1.1000323195986927e-09	0.0018855396	-0.0017700873	0.22593936	0	0	0.400001	1.0348501e-14	-1.9295974e-16	1.9247855e-16	1.0493004e-14	-1.7184207e-16	-20.477518	600	2.9845134e-05
1.1100354398985196e-09	0.00357908	-0.0007506544	0.2256388	0	0	0.400001	1.03273094e-14	-1.9294881e-16	1.9259053e-16	1.0497548e-14	-1.7161345e-16	-25.135353	600	3.7583646e-05
1.1200246608889066e-09	0.0027119163	0.0013069232	0.22641912	0	0	0.400001	1.0309925e-14	-1.9300961e-16	1.9274408e-16	1.04927706e-14	-1.7220695e-16	-19.863886	600	2.7643437e-05
1.1300189655526764e-09	0.001009302	0.0020392616	0.22688854	0	0	0.400001	1.0333046e-14	-1.9315543e-16	1.9254369e-16	1.0491999e-14	-1.7256398e-16	-17.506207	600	4.106287e-05
1.1400052822098526e-09	-0.0008923352	0.0020120803	0.227576	0	0	0.400001	1.0350394e-14	-1.9332661e-16	1.9289753e-16	1.04926825e-14	-1.7308682e-16	-44.28315	600	4.423953e-05
1.1500253914806994e-09	-0.0020477688	0.00089815876	0.22791559	0	0	0.400001	1.0295367e-14	-1.9336492e-16	1.9297093e-16	1.0487615e-14	-1.7334511e-16	-18.361115	600	3.5386074e-05
1.160051423763812e-09	-0.0027374085	-0.0019691924	0.22948208	0	0	0.400001	1.0279986e-14	-1.9358574e-16	1.9320732e-16	1.0480493e-14	-1.7453655e-16	-21.987204	600	2.4842508e-05
1.170040981533431e-09	-0.002184012	-0.0021660293	0.22871052	0	0	0.400001	1.0297615e-14	-1.934336e-16	1.934378e-16	1.0469751e-14	-1.7394972e-16	-15.719026	600	4.161246e-05
1.180023222231256e-09	-0.0018285788	-0.0035359366	0.22871913	0	0	0.400001	1.0290667e-14	-1.9385985e-16	1.9315412e-16	1.046874e-14	-1.7395627e-16	-24.530235	600	3.1888932e-05
1.190079518638457e-09	0.0011591702	-0.004020525	0.22703247	0	0	0.400001	1.0292567e-14	-1.931825e-16	1.9309487e-16	1.0483168e-14	-1.7267344e-16	-17.75458	600	6.561712e-05
1.2000131309182139e-09	0.0032733711	-0.0013712563	0.22751684	0	0	0.400001	1.0325875e-14	-1.9308191e-16	1.9292479e-16	1.049292e-14	-1.7304184e-16	-35.697247	600	2.6849519e-05
1.2100078814826078e-09	0.0036162287	0.0016641639	0.22687843	0	0	0.400001	1.03118934e-14	-1.931746e-16	1.9287029e-16	1.0494412e-14	-1.7255627e-16	-49.919376	600	1.8991375e-05
1.2200229227165059e-09	0.0006862795	0.002005326	0.22757047	0	0	0.400001	1.03648415e-14	-1.93288e-16	1.932239e-16	1.0509269e-14	-1.7308262e-16	-42.33716	600	3.135897e-05
1.2300137773247772e-09	-0.000738474	0.0017929034	0.22786647	0	0	0.400001	1.0323292e-14	-1.9325986e-16	1.9292548e-16	1.0500063e-14	-1.7330776e-16	-34.01562	600	2.993212e-05
1.2400018543860287e-09	-0.002182715	0.001348376	0.22774887	0	0	0.400001	1.0331346e-14	-1.9357045e-16	1.9291604e-16	1.0507086e-14	-1.7321833e-16	-24.52661	600	3.7925103e-05
1.2500772212046476e-09	-0.0010746783	-0.0014055109	0.22844699	0	0	0.400001	1.0324135e-14	-1.9312989e-16	1.9261713e-16	1.0489443e-14	-1.7374927e-16	-37.459965	600	4.6959904e-05
1.260003382825923e-09	0.00067411026	-0.0017653602	0.22892143	0	0	0.400001	1.0310863e-14	-1.9324731e-16	1.9317418e-16	1.048015e-14	-1.7411012e-16	-29.15503	600	4.0654337e-05
1.2700823850801478e-09	0.0017816284	-0.00048402674	0.2280265	0	0	0.400001	1.0310034e-14	-1.9323834e-16	1.9307507e-16	1.0485423e-14	-1.7342949e-16	-30.838408	600	3.1559593e-05
1.2800842538573724e-09	0.000976396	-0.0013632843	0.23028675	0	0	0.400001	1.0295916e-14	-1.9388534e-16	1.9360893e-16	1.0475496e-14	-1.7514853e-16	-30.665684	600	4.921435e-05
1.2900144947142881e-09	0.0009836059	-0.0014315813	0.22794074	0	0	0.400001	1.0327408e-14	-1.931272e-16	1.9280654e-16	1.049375e-14	-1.7336425e-16	-17.988796	600	2.838343e-05
1.300070800939305e-09	0.001727213	-0.0010320928	0.2274636	0	0	0.400001	1.0328532e-14	-1.9304891e-16	1.9314158e-16	1.0493488e-14	-1.7300133e-16	-34.37982	600	3.3638036e-05
1.3100259573861118e-09	0.0021586018	0.0008497429	0.22889182	0	0	0.400001	1.03101655e-14	-1.9339434e-16	1.9297729e-16	1.0479954e-14	-1.740876e-16	-23.522945	600	2.1790087e-05
1.3200812354149288e-09	-9.8362274e-05	0.0019477705	0.2303076	0	0	0.400001	1.0318509e-14	-1.9359718e-16	1.9311656e-16	1.0485847e-14	-1.7516439e-16	-29.099852	600	3.535127e-05
1.330026426426936e-09	-0.0012563001	0.0025791032	0.23040901	0	0	0.400001	1.0297022e-14	-1.9354531e-16	1.9324015e-16	1.048399e-14	-1.7524152e-16	-31.161705	600	5.5324766e-05
1.3400613063293282e-09	-0.0017258684	0.001452007	0.22987144	0	0	0.400001	1.0318583e-14	-1.9334678e-16	1.9316888e-16	1.0490739e-14	-1.7483264e-16	-31.12986	600	2.3210427e-05
1.3500487392000393e-09	-0.0021045117	0.0006571607	0.2305852	0	0	0.400001	1.0294575e-14	-1.9360242e-16	1.9337601e-16	1.0482391e-14	-1.7537555e-16	-19.090305	600	2.7740958e-05
1.36006465960999e-09	-0.0022995234	-0.0009374806	0.22970307	0	0	0.400001	1.0301046e-14	-1.9344799e-16	1.9376302e-16	1.0493894e-14	-1.747046e-16	-28.635393	600	3.1165157e-05
1.3700257254948024e-09	-0.0007634931	-0.0026838516	0.23026383	0	0	0.400001	1.0315176e-14	-1.9352164e-16	1.9337288e-16	1.0475483e-14	-1.7513112e-16	-27.720592	600	3.404782e-05
1.3800723397593864e-09	0.00024022437	-0.0025006123	0.23080102	0	0	0.400001	1.0314011e-14	-1.9347561e-16	1.9345269e-16	1.0475985e-14	-1.7553968e-16	-33.94187	600	2.9185556e-05
1.3900396800514483e-09	0.0023477797	-0.001828602	0.22994033	0	0	0.400001	1.0307725e-14	-1.9331411e-16	1.9324883e-16	1.0488047e-14	-1.7488507e-16	-27.612062	600	3.2386986e-05
1.400024328868283e-09	0.0022223403	-0.00024288558	0.22738785	0	0	0.400001	1.0321819e-14	-1.9331292e-16	1.929152e-16	1.0498684e-14	-1.7294372e-16	-24.458418	600	4.9035927e-05
1.4100632754874859e-09	0.00039084442	0.0014697631	0.22789752	0	0	0.400001	1.03229676e-14	-1.9321388e-16	1.9300354e-16	1.0484819e-14	-1.7333134e-16	-27.418835	600	2.4250976e-05
1.4200505626633864e-09	-0.00047421	0.0023300825	0.22626032	0	0	0.400001	1.0313126e-14	-1.9333187e-16	1.9267034e-16	1.0499106e-14	-1.7208618e-16	-22.13761	600	3.6680904e-05
1.4300017260265487e-09	-0.0017146328	0.0015071594	0.22662789	0	0	0.400001	1.0327897e-14	-1.9297484e-16	1.9285576e-16	1.04980704e-14	-1.7236574e-16	-20.800478	600	5.3005395e-05
1.4400449031850226e-09	-0.0024150882	0.0012267703	0.22780386	0	0	0.400001	1.0310905e-14	-1.9353161e-16	1.929601e-16	1.0486851e-14	-1.7326013e-16	-35.180748	600	2.8482016e-05
1.4500449476130972e-09	-0.0020500652	-0.00053388154	0.22773564	0	0	0.400001	1.030799e-14	-1.933608e-16	1.9288752e-16	1.04898915e-14	-1.7320826e-16	-16.940313	600	2.7303768e-05
1.460066721085551e-09	-0.002945863	-0.0024860841	0.22979088	0	0	0.400001	1.0317681e-14	-1.9357858e-16	1.9345118e-16	1.0490759e-14	-1.747714e-16	-23.989567	600	3.3085795e-05
1.4700211109256764e-09	-0.0008174793	-0.0048649786	0.2284917	0	0	0.400001	1.030886e-14	-1.9329853e-16	1.930666e-16	1.04839e-14	-1.7378327e-16	-23.546028	600	3.5472545e-05
1.4800778311510222e-09	0.002680392	-0.003115642	0.22848275	0	0	0.400001	1.0304856e-14	-1.9333062e-16	1.9331525e-16	1.0485579e-14	-1.737765e-16	-36.568436	600	3.418406e-05
1.4900807952255809e-09	0.0023465005	0.000166688	0.22896528	0	0	0.400001	1.0316584e-14	-1.9339321e-16	1.9356196e-16	1.0491193e-14	-1.7414345e-16	-30.05754	600	3.0812116e-05
1.5000142096063938e-09	0.0018308625	0.0017851319	0.2294774	0	0	0.400001	1.031374e-14	-1.9342993e-16	1.9317821e-16	1.0479192e-14	-1.7453298e-16	-21.867813	600	4.030809e-05
1.5100814077066497e-09	-3.058149e-05	0.002427089	0.22926721	0	0	0.400001	1.0300234e-14	-1.9331938e-16	1.9315148e-16	1.04898136e-14	-1.7437313e-16	-19.201658	600	3.37783e-05
1.5200157266116568e-09	-0.00062315457	0.00054163655	0.22919178	0	0	0.400001	1.0330056e-14	-1.937855e-16	1.937935e-16	1.0492016e-14	-1.7431573e-16	-30.691006	600	4.128815e-05
1.5300683123843944e-09	-8.752785e-05	-0.000118524724	0.22778247	0	0	0.400001	1.0311711e-14	-1.934173e-16	1.9318137e-16	1.048633e-14	-1.7324389e-16	-32.731735	600	3.0587216e-05
1.5400262675568677e-09	0.000641791	-0.0007509215	0.2274876	0	0	0.400001	1.0325482e-14	-1.9340457e-16	1.9317371e-16	1.0497327e-14	-1.730196e-16	-37.36889	600	2.9323546e-05
1.5500496144473878e-09	0.0011266718	0.00038589	0.2285546	0	0	0.400001	1.0321153e-14	-1.9344463e-16	1.9316826e-16	1.0502139e-14	-1.7383115e-16	-26.656794	600	3.0742343e-05
1.5600057752394363e-09	0.00043262562	0.0004827879	0.22884256	0	0	0.400001	1.0320148e-14	-1.936313e-16	1.9317024e-16	1.0494881e-14	-1.7405013e-16	-39.0443	600	3.7503865e-05
1.570074750289708e-09	-4.5825625e-05	0.0021614465	0.22966799	0	0	0.400001	1.02993e-14	-1.9361967e-16	1.9342982e-16	1.0487042e-14	-1.7467794e-16	-32.119904	600	2.802738e-05
1.5800767803285887e-09	-0.0014465139	0.0022651455	0.22913863	0	0	0.400001	1.0322953e-14	-1.9298703e-16	1.9330316e-16	1.0490252e-14	-1.7427531e-16	-19.790504	600	3.3235236e-05
1.5900713514457952e-09	-0.001573839	0.00091694534	0.2275472	0	0	0.400001	1.0325177e-14	-1.9345759e-16	1.9298803e-16	1.0492051e-14	-1.7306491e-16	-21.747269	600	3.2645068e-05
1.6000647509604618e-09	-0.0024063424	0.0005980503	0.22712193	0	0	0.400001	1.0306202e-14	-1.9329369e-16	1.931231e-16	1.0485411e-14	-1.7274148e-16	-26.849194	600	2.9600364e-05
1.6100174841845803e-09	-0.0018424272	-0.0005509424	0.22743931	0	0	0.400001	1.03268165e-14	-1.9331556e-16	1.9343226e-16	1.0493724e-14	-1.7298288e-16	-41.213795	600	1.968574e-05
1.6200092341004319e-09	-0.0016824396	-0.0029486385	0.22816521	0	0	0.400001	1.0324174e-14	-1.9337855e-16	1.936393e-16	1.0498692e-14	-1.7353498e-16	-25.016726	600	3.0568797e-05
1.630074710072377e-09	0.0010814243	-0.0020473823	0.22721027	0	0	0.400001	1.033012e-14	-1.9322678e-16	1.929157e-16	1.0501399e-14	-1.7280868e-16	-23.659838	600	3.2031043e-05
1.6400087262416393e-09	0.0018637136	-0.0012879227	0.22669612	0	0	0.400001	1.0333247e-14	-1.9334014e-16	1.9288723e-16	1.0498852e-14	-1.7241763e-16	-28.260607	600	2.6996597e-05
1.650041996317431e-09	0.0013396858	0.0003809625	0.22705479	0	0	0.400001	1.0341081e-14	-1.9346955e-16	1.9296506e-16	1.0504404e-14	-1.7269044e-16	-20.30655	600	2.9129258e-05
1.6600160417055035e-09	0.0010444497	-0.00070948753	0.22644517	0	0	0.400001	1.0342746e-14	-1.9356595e-16	1.9335204e-16	1.0499554e-14	-1.7222677e-16	-39.708286	600	4.1305157e-05
1.6700375262203753e-09	0.0020521632	0.00038147083	0.22666857	0	0	0.400001	1.0297047e-14	-1.932424e-16	1.9282291e-16	1.04969464e-14	-1.7239667e-16	-11.531392	600	2.4276618e-05
1.6800474568003265e-09	0.002369194	0.0002594505	0.22647946	0	0	0.400001	1.0316843e-14	-1.9337317e-16	1.9304707e-16	1.0499659e-14	-1.7225285e-16	-30.208138	600	3.8131446e-05
1.6900556819438974e-09	0.0016744706	0.0010653372	0.22716177	0	0	0.400001	1.0308584e-14	-1.9359191e-16	1.9309352e-16	1.04826434e-14	-1.7277177e-16	-30.12306	600	3.0414716e-05
1.7000287425261547e-09	0.00042118988	0.0020371808	0.2279189	0	0	0.400001	1.0311833e-14	-1.9332823e-16	1.9340755e-16	1.04864805e-14	-1.7334764e-16	-36.30881	600	2.6266456e-05
1.7100800367796135e-09	-0.0017014141	0.0011762362	0.2271543	0	0	0.400001	1.0321488e-14	-1.9328919e-16	1.9297103e-16	1.0493518e-14	-1.7276611e-16	-22.927666	600	3.1992975e-05