# t (s)	mx ()	my ()	mz ()	B_demag.region0x (T)	B_demag.region0y (T)	B_demag.region0z (T)	m_full.region0x (A/m)	m_full.region0y (A/m)	m_full.region0z (A/m)
1e-09	0.0012089964	-0.00048566252	0.9449123	-7.890345e-07	3.16536e-07	0.00018743734	0	0	0
1.0023160356379003e-09	0.0013182001	-0.00031744887	0.9449197	-8.6279806e-07	2.062834e-07	0.00018747963	0	0	0
1.0042837118847219e-09	0.0013252022	-0.00023455531	0.9448885	-8.6624425e-07	1.5392425e-07	0.00018747081	0	0	0
1.006329995674799e-09	0.0013459715	-0.00015455364	0.944904	-8.795711e-07	1.0368785e-07	0.00018752663	0	0	0
1.0080154825732465e-09	0.0014395475	-2.0482368e-05	0.94489986	-9.4411587e-07	1.4810212e-08	0.00018755192	0	0	0
1.0100238116575386e-09	0.0014019867	9.445641e-05	0.9449004	-9.1735615e-07	-6.024038e-08	0.0001875844	0	0	0
1.0120244483144232e-09	0.0013226664	0.0001428387	0.94487417	-8.6159827e-07	-8.9051355e-08	0.00018758993	0	0	0
1.0140222547354647e-09	0.0012648642	0.000207015	0.94483757	-8.2117964e-07	-1.2814058e-07	0.00018758254	0	0	0
1.0160266752710071e-09	0.0012182692	0.00027484776	0.9447444	-7.893353e-07	-1.6921058e-07	0.00018751297	0	0	0
1.018060478691694e-09	0.0011573879	0.0002783607	0.94474775	-7.48161e-07	-1.6540412e-07	0.00018755539	0	0	0
1.0200438659771523e-09	0.0012221654	0.00036724837	0.9447323	-7.945405e-07	-2.2111726e-07	0.00018758001	0	0	0
1.0220530679897415e-09	0.0011935437	0.00041788095	0.944672	-7.7675463e-07	-2.5043664e-07	0.00018754552	0	0	0
1.024036725448034e-09	0.0011455251	0.00060164375	0.94465363	-7.461815e-07	-3.7259542e-07	0.00018755274	0	0	0
1.0260585301710321e-09	0.0010362279	0.0007158065	0.9445922	-6.7343035e-07	-4.4658736e-07	0.00018751921	0	0	0
1.0280653376543779e-09	0.0009849637	0.0007698691	0.9445276	-6.4172673e-07	-4.78723e-07	0.0001874763	0	0	0
1.0300458573084512e-09	0.0008815108	0.0008783269	0.9444698	-5.745263e-07	-5.4885413e-07	0.00018744402	0	0	0
1.0320663220510689e-09	0.000750672	0.0009850387	0.9444167	-4.888326e-07	-6.1848596e-07	0.00018741773	0	0	0
1.0340810972138259e-09	0.0006943409	0.0010636619	0.94439995	-4.5511416e-07	-6.7014025e-07	0.00018743164	0	0	0
1.036085354377371e-09	0.0005845693	0.0011110744	0.9443946	-3.8399853e-07	-7.0147826e-07	0.00018746269	0	0	0
1.0381057942490394e-09	0.00039263	0.0011603726	0.94436705	-2.5570924e-07	-7.351091e-07	0.00018746612	0	0	0
1.0401049577369682e-09	0.0002658483	0.0011951176	0.9443719	-1.7271196e-07	-7.5968455e-07	0.00018750766	0	0	0
1.0421276958780015e-09	0.00018226003	0.0011667836	0.9442835	-1.1997292e-07	-7.411709e-07	0.00018744507	0	0	0
1.0441059601353861e-09	8.284052e-05	0.0011446711	0.9442545	-5.5766094e-08	-7.2790135e-07	0.00018744697	0	0	0
1.0461182404840664e-09	2.3075216e-05	0.0010857435	0.9442256	-1.9155465e-08	-6.8953705e-07	0.00018745004	0	0	0
1.048151198688157e-09	-6.152249e-05	0.001058166	0.94419754	3.49292e-08	-6.73572e-07	0.00018746172	0	0	0
1.0501619990871543e-09	-0.00016004132	0.0010889884	0.94414866	9.9562925e-08	-6.987874e-07	0.00018744303	0	0	0
1.0521442576275308e-09	-0.00024135681	0.0010800865	0.9441503	1.5254912e-07	-6.9664384e-07	0.00018748235	0	0	0
1.054143158541819e-09	-0.00036101797	0.0010354447	0.9441169	2.3232468e-07	-6.697164e-07	0.00018748041	0	0	0
1.0561324269655638e-09	-0.0004034935	0.0010488366	0.9440853	2.587101e-07	-6.833809e-07	0.00018747251	0	0	0
1.0581398104775306e-09	-0.0005122016	0.00095442776	0.94404393	3.311171e-07	-6.226328e-07	0.00018746984	0	0	0
1.0601586746180516e-09	-0.00061714376	0.0009581338	0.94397944	4.0103583e-07	-6.307737e-07	0.00018743392	0	0	0
1.0622035812031482e-09	-0.00066034065	0.00084851275	0.94395524	4.2851116e-07	-5.6060736e-07	0.00018744092	0	0	0
1.064208002446985e-09	-0.0008187671	0.0007869421	0.9439508	5.367252e-07	-5.241735e-07	0.0001874803	0	0	0
1.0662227494492684e-09	-0.00082764524	0.0005969695	0.94395083	5.417652e-07	-3.9878478e-07	0.0001875218	0	0	0
1.0682132912204532e-09	-0.0009021458	0.000463516	0.9439152	5.9315533e-07	-3.1294894e-07	0.00018752224	0	0	0
1.0702420702803013e-09	-0.0009340752	0.0003211212	0.94385254	6.158874e-07	-2.2141194e-07	0.0001874936	0	0	0
1.0722287198371451e-09	-0.00097593525	0.00023863497	0.9437976	6.4657115e-07	-1.7134244e-07	0.00018746307	0	0	0
1.0742339288589358e-09	-0.0010064503	0.00018026929	0.9437605	6.704897e-07	-1.3760018e-07	0.00018745582	0	0	0
1.0762653155162155e-09	-0.0009474551	-1.6088587e-05	0.94376767	6.329328e-07	-7.1624413e-09	0.00018750949	0	0	0
1.0782842629092956e-09	-0.0009581929	-0.00014755494	0.9437302	6.4444896e-07	7.905237e-08	0.00018750204	0	0	0
1.080263994419976e-09	-0.0010286478	-0.00020384761	0.94368505	6.9779566e-07	1.14121576e-07	0.00018748827	0	0	0
1.0822680865096818e-09	-0.001054073	-0.00032173266	0.94364965	7.2051324e-07	1.9276752e-07	0.00018747809	0	0	0
1.0842657634329145e-09	-0.0010132354	-0.00049065717	0.9436	6.971486e-07	3.0732645e-07	0.0001874574	0	0	0
1.0862749280518925e-09	-0.0010194676	-0.00058776146	0.94358367	7.0622326e-07	3.7242535e-07	0.00018746976	0	0	0
1.0883016113522207e-09	-0.000915048	-0.0007206568	0.94357854	6.3835705e-07	4.6294804e-07	0.00018749804	0	0	0
1.090318494648421e-09	-0.0008585412	-0.00075596356	0.9435155	6.038852e-07	4.8629977e-07	0.00018746895	0	0	0
1.0923296105144873e-09	-0.00074084767	-0.0007738353	0.94350374	5.268788e-07	4.9782784e-07	0.0001874943	0	0	0
1.0943224283471046e-09	-0.00068642333	-0.0008632957	0.94346446	4.936808e-07	5.589809e-07	0.00018748408	0	0	0
1.0963216031480626e-09	-0.00055909203	-0.000899352	0.9434431	4.1038857e-07	5.829952e-07	0.00018749658	0	0	0
1.0980061772640593e-09	-0.00048811868	-0.0008935303	0.9434484	3.6571157e-07	5.779757e-07	0.00018752922	0	0	0
1.1003244684830666e-09	-0.00038708223	-0.00096286536	0.9434511	3.022049e-07	6.252849e-07	0.00018757863	0	0	0
1.1020175347925871e-09	-0.00023080371	-0.0010938542	0.9434289	1.9842938e-07	7.1661907e-07	0.00018758317	0	0	0
1.1040204263465903e-09	-7.3104704e-05	-0.0010605749	0.94339526	9.4649096e-08	6.94793e-07	0.00018757657	0	0	0
1.1060319453746773e-09	0.00010465722	-0.0010469854	0.9433532	-2.3622533e-08	6.87447e-07	0.00018756418	0	0	0
1.1080629467269401e-09	0.00018031169	-0.0011126806	0.94336206	-7.157686e-08	7.3575666e-07	0.00018761649	0	0	0
1.110085068994417e-09	0.00029372683	-0.0010922558	0.94331944	-1.4623299e-07	7.243538e-07	0.00018759829	0	0	0
1.1120725210116284e-09	0.00045549258	-0.0010426613	0.9432826	-2.552582e-07	6.927776e-07	0.00018759046	0	0	0
1.1140869389916414e-09	0.00055450044	-0.0009990591	0.9432591	-3.2097734e-07	6.662524e-07	0.00018760187	0	0	0
1.1161160287073656e-09	0.0006863547	-0.0009111152	0.94321144	-4.1023844e-07	6.09515e-07	0.00018758548	0	0	0
1.1180858308581348e-09	0.0007894292	-0.00085112266	0.943172	-4.803677e-07	5.725492e-07	0.00018757323	0	0	0
1.1200993431068793e-09	0.0008927352	-0.00078020536	0.9431189	-5.514281e-07	5.2850373e-07	0.00018754376	0	0	0
1.122089809025708e-09	0.0009124982	-0.00060800166	0.94311124	-5.65332e-07	4.1353178e-07	0.00018757283	0	0	0
1.1241003754178846e-09	0.0009677084	-0.0005106167	0.9431179	-6.046005e-07	3.5092762e-07	0.00018762343	0	0	0
1.126125931883709e-09	0.0009464305	-0.00041573378	0.9430502	-5.913351e-07	2.9044372e-07	0.00018757179	0	0	0
1.1281313938102194e-09	0.0009337541	-0.0003088792	0.94300395	-5.8526325e-07	2.2209042e-07	0.00018755683	0	0	0
1.1301363088517537e-09	0.000927583	-0.00023975405	0.94294894	-5.8450854e-07	1.7947718e-07	0.00018751697	0	0	0
1.1321548934867194e-09	0.00090877153	-0.00011963225	0.9429747	-5.7553035e-07	1.0058693e-07	0.0001875799	0	0	0
1.1341683757112936e-09	0.0008788782	-7.413367e-05	0.94291764	-5.586661e-07	7.307153e-08	0.000187544	0	0	0
1.1361756133806053e-09	0.00087568705	3.3826516e-05	0.94287616	-5.603119e-07	1.974513e-09	0.00018752745	0	0	0
1.1381892319990292e-09	0.0008085094	3.9083454e-05	0.94282645	-5.178455e-07	2.660272e-09	0.00018750168	0	0	0
1.1401824948533685e-09	0.0008159224	4.2872187e-05	0.94279563	-5.276001e-07	4.1427484e-09	0.00018750248	0	0	0
1.1421662000719379e-09	0.0007312955	0.0001361739	0.9427592	-4.738168e-07	-5.7439138e-08	0.00018749622	0	0	0
1.1442052690095421e-09	0.0007252443	0.00020120756	0.9427657	-4.7480995e-07	-9.996461e-08	0.00018754172	0	0	0
1.1461794082765675e-09	0.00076241663	0.00023419345	0.9427252	-5.060407e-07	-1.2066357e-07	0.00018752569	0	0	0
1.1482160087255777e-09	0.00079247635	0.00026379534	0.94269437	-5.323941e-07	-1.3914632e-07	0.00018751337	0	0	0
1.1502003360585748e-09	0.00079000264	0.00029544707	0.9426548	-5.358505e-07	-1.592457e-07	0.00018751026	0	0	0
1.1522072500968784e-09	0.0007935177	0.0003337769	0.94258624	-5.4375886e-07	-1.8424521e-07	0.0001874649	0	0	0
1.1542279430876818e-09	0.00072230975	0.00035705918	0.942543	-5.0029075e-07	-1.9918798e-07	0.00018744865	0	0	0
1.1562709638355475e-09	0.0007444202	0.00039040355	0.9425337	-5.2229313e-07	-2.2203494e-07	0.00018747245	0	0	0
1.15826071042339e-09	0.0006916482	0.00044693277	0.94255066	-4.919016e-07	-2.619413e-07	0.00018751953	0	0	0
1.1602742655833133e-09	0.0006987677	0.00057229353	0.94254094	-5.0274554e-07	-3.5091762e-07	0.00018753388	0	0	0
1.1622899960913989e-09	0.00066021876	0.00063268916	0.94249344	-4.812026e-07	-3.95626e-07	0.00018751921	0	0	0
1.1642991393265924e-09	0.0005817438	0.0006836435	0.942509	-4.3166483e-07	-4.3452e-07	0.00018756338	0	0	0
1.1662829115957877e-09	0.00047324708	0.0007457092	0.9424836	-3.604925e-07	-4.815344e-07	0.000187569	0	0	0
1.168306462356445e-09	0.00039399945	0.0007008227	0.9424691	-3.0912295e-07	-4.5517083e-07	0.0001875798	0	0	0
1.1702900419473753e-09	0.00027086464	0.00070980017	0.94239616	-2.2664301e-07	-4.6697824e-07	0.00018752525	0	0	0
1.1722934142450243e-09	0.00016547927	0.00070309255	0.94236106	-1.5604616e-07	-4.680578e-07	0.00018751093	0	0	0
1.1743174158206946e-09	9.703436e-05	0.00074010936	0.94235355	-1.1081113e-07	-5.000388e-07	0.00018753295	0	0	0
1.1763017527707942e-09	2.4653767e-05	0.0007112902	0.9423256	-6.183987e-08	-4.8671745e-07	0.00018753008	0	0	0
1.178307103618705e-09	2.5370158e-05	0.0006568999	0.9422989	-6.221259e-08	-4.5619527e-07	0.00018753075	0	0	0
1.1803319710103022e-09	3.871324e-05	0.00063852814	0.94228476	-7.007145e-08	-4.5100296e-07	0.00018754852	0	0	0
1.182002855741104e-09	-3.4714933e-06	0.00061688724	0.9422908	-3.906672e-08	-4.4226272e-07	0.00018758776	0	0	0
1.1840230739423242e-09	1.8569059e-05	0.00057358237	0.94228315	-5.1252357e-08	-4.1948852e-07	0.00018760866	0	0	0
1.1860454540171334e-09	2.1135318e-06	0.0006290037	0.94232714	-3.5335205e-08	-4.647327e-07	0.00018769353	0	0	0
1.1880533048601498e-09	-7.7357065e-05	0.0006020417	0.9422957	2.5266587e-08	-4.518057e-07	0.00018768682	0	0	0
1.190070323969583e-09	-1.2645917e-05	0.00060815696	0.94222057	-1.4016678e-08	-4.6131527e-07	0.00018762788	0	0	0
1.1920906663593774e-09	-2.4198158e-05	0.00058319705	0.9421972	2.6034286e-11	-4.487497e-07	0.00018763272	0	0	0
1.194115713518409e-09	-5.4113603e-05	0.00051244255	0.9421552	2.7507497e-08	-4.0431132e-07	0.00018761904	0	0	0
1.196121412070339e-09	-0.000105810934	0.00053453643	0.9421117	7.062329e-08	-4.2378815e-07	0.00018759415	0	0	0
1.1981184052676265e-09	-6.2801635e-05	0.00057112635	0.94203794	4.818955e-08	-4.5264278e-07	0.00018754324	0	0	0
1.2001237256936364e-09	-0.00014119584	0.00061547174	0.94200814	1.1049622e-07	-4.867197e-07	0.00018754386	0	0	0
1.2021482125338024e-09	-0.00012088836	0.0006087493	0.9419792	1.047556e-07	-4.845215e-07	0.00018754968	0	0	0
1.2041752320998105e-09	-0.00017631266	0.0006235611	0.94197655	1.520838e-07	-4.9585765e-07	0.00018757125	0	0	0
1.2061961162761397e-09	-0.00018261479	0.0006423175	0.941934	1.6468627e-07	-5.0857034e-07	0.00018755216	0	0	0
1.2081825888666834e-09	-0.00022940102	0.00059563975	0.9418968	2.0500727e-07	-4.7425516e-07	0.00018755015	0	0	0
1.2101850073306138e-09	-0.00028469804	0.0005253331	0.9418911	2.5051847e-07	-4.2202043e-07	0.00018758471	0	0	0
1.212196412237734e-09	-0.00025914627	0.0004836542	0.9419031	2.3933626e-07	-3.8847975e-07	0.00018763299	0	0	0
1.2141996126550987e-09	-0.00032413838	0.00045753265	0.9418702	2.8983408e-07	-3.645755e-07	0.00018762775	0	0	0
1.216142715057408e-09	-0.00041266036	0.00042833606	0.9418004	3.5636248e-07	-3.3852257e-07	0.00018758276	0	0	0
1.2181479218169928e-09	-0.00038782257	0.00035932992	0.94173133	3.440345e-07	-2.836431e-07	0.0001875379	0	0	0
1.2201550256997687e-09	-0.00037186226	0.00041377748	0.94170856	3.3742202e-07	-3.1385844e-07	0.00018754126	0	0	0
1.2221081742671594e-09	-0.00041496233	0.00040626037	0.941662	3.7124005e-07	-3.0072806e-07	0.00018752115	0	0	0
1.2240929443834934e-09	-0.00043801544	0.00038334425	0.9416164	3.900381e-07	-2.763054e-07	0.00018749987	0	0	0
1.2260965983265016e-09	-0.00048154895	0.00027236168	0.94159496	4.218968e-07	-1.9026947e-07	0.0001875141	0	0	0
1.2281099728260029e-09	-0.0005117666	0.0002295482	0.9415328	4.4325114e-07	-1.5156365e-07	0.00018746915	0	0	0
1.2301335806451308e-09	-0.00058450946	0.00017701903	0.9414753	4.9291305e-07	-1.0611109e-07	0.00018743785	0	0	0
1.2321619692431207e-09	-0.0006216051	0.00012321703	0.94146454	5.163857e-07	-5.9550075e-08	0.00018745552	0	0	0
1.234157856918644e-09	-0.0006459542	8.4331376e-05	0.94143647	5.297568e-07	-2.4108886e-08	0.00018746093	0	0	0
1.2361339087010593e-09	-0.0006963108	-1.0642303e-05	0.9414113	5.5961686e-07	4.9985033e-08	0.00018746583	0	0	0
1.2381216938562078e-09	-0.00065946043	-2.3090022e-05	0.94139403	5.275907e-07	6.5920176e-08	0.00018747809	0	0	0
1.240116125487586e-09	-0.0006560841	-8.76314e-05	0.941336	5.1813913e-07	1.1731481e-07	0.00018745312	0	0	0
1.242133082977423e-09	-0.00057688233	-0.00012347566	0.9412959	4.5557368e-07	1.483786e-07	0.00018743651	0	0	0
1.2441396121448902e-09	-0.00057426887	-0.000160289	0.94125766	4.45708e-07	1.7923185e-07	0.00018742775	0	0	0
1.2461137709348793e-09	-0.0005761564	-0.0002472808	0.9412468	4.3854214e-07	2.4375595e-07	0.00018744745	0	0	0
1.2481193489504034e-09	-0.0005895955	-0.00030172235	0.94121057	4.3898314e-07	2.8438305e-07	0.00018743669	0	0	0
1.250141439302626e-09	-0.0005988857	-0.00037046726	0.9411806	4.3631195e-07	3.3373e-07	0.00018743954	0	0	0
1.2521173732846102e-09	-0.0005813917	-0.00041386997	0.94118387	4.1499558e-07	3.6399433e-07	0.00018747505	0	0	0
1.2541388664782249e-09	-0.0005737668	-0.0004380513	0.94112766	4.0048096e-07	3.7986456e-07	0.0001874421	0	0	0
1.2561521138472674e-09	-0.0005929361	-0.0005240253	0.94108886	4.0486492e-07	4.3838781e-07	0.00018743447	0	0	0
1.25816198013974e-09	-0.00056732335	-0.00053679757	0.9410454	3.7833516e-07	4.4498177e-07	0.00018741642	0	0	0
1.2601876743807003e-09	-0.00053299684	-0.00057860307	0.9410466	3.461002e-07	4.7072172e-07	0.00018745297	0	0	0
1.2621783456864688e-09	-0.0005435475	-0.0005770949	0.9410383	3.4514173e-07	4.6551034e-07	0.00018748164	0	0	0
1.2641975142620567e-09	-0.00054193416	-0.00055824936	0.94102335	3.3580125e-07	4.4774242e-07	0.00018749965	0	0	0
1.2662019628198848e-09	-0.0005022214	-0.00058621995	0.9410456	3.0043122e-07	4.6174864e-07	0.00018756367	0	0	0
1.2682061968692125e-09	-0.000472728	-0.00059528963	0.94099486	2.7335676e-07	4.615231e-07	0.00018753347	0	0	0
1.2702131636974292e-09	-0.00043297576	-0.0006388555	0.94093513	2.4013153e-07	4.8394077e-07	0.00018750588	0	0	0
1.2722412105425624e-09	-0.00037422945	-0.000728221	0.94091785	1.9554042e-07	5.3744543e-07	0.00018751444	0	0	0
1.2742289986105596e-09	-0.0003660224	-0.0006581504	0.94089127	1.8746829e-07	4.8023185e-07	0.0001875167	0	0	0
1.2762561094768965e-09	-0.00026854913	-0.00074881397	0.9408857	1.1839978e-07	5.349391e-07	0.00018754836	0	0	0
1.2782896196821597e-09	-0.00026637205	-0.0007587314	0.94086015	1.167337e-07	5.338088e-07	0.00018755384	0	0	0
1.2803113133018117e-09	-0.00026256315	-0.00078988913	0.940818	1.1464661e-07	5.4810516e-07	0.00018753925	0	0	0
1.2823250728883435e-09	-0.00019057839	-0.00080757804	0.94075286	6.583227e-08	5.537879e-07	0.0001875001	0	0	0
1.2843273347610429e-09	-6.184516e-05	-0.0008097019	0.9407137	-2.2318346e-08	5.4919565e-07	0.00018748699	0	0	0
1.2860188750725546e-09	-2.7242326e-05	-0.00084633485	0.94073266	-4.472909e-08	5.694883e-07	0.0001875447	0	0	0
1.288030510333352e-09	9.1697744e-05	-0.0009038996	0.9406929	-1.2441157e-07	6.032192e-07	0.00018753407	0	0	0
1.2900429839507305e-09	0.00014011294	-0.0008264195	0.94064605	-1.544814e-07	5.429115e-07	0.00018751931	0	0	0
1.2920356641850307e-09	0.00017890456	-0.00087615626	0.94059813	-1.7713359e-07	5.7142597e-07	0.00018750291	0	0	0
1.2940282473063337e-09	0.00031004313	-0.0007440251	0.9405736	-2.6316948e-07	4.7387948e-07	0.00018750009	0	0	0
1.2960517687434888e-09	0.0003750905	-0.00067333446	0.9405568	-3.0265326e-07	4.1927433e-07	0.0001875129	0	0	0
1.2980307245235625e-09	0.0003408893	-0.0006483108	0.9405367	-2.7287524e-07	3.9671812e-07	0.00018752138	0	0	0
1.300010673293595e-09	0.00029557355	-0.000705342	0.94047654	-2.3524056e-07	4.317135e-07	0.00018748682	0	0	0
1.3020073912507336e-09	0.0003570871	-0.00062595616	0.9404354	-2.7160735e-07	3.7251903e-07	0.00018747101	0	0	0
1.3040254471099948e-09	0.00043243574	-0.0006166594	0.9404119	-3.1787886e-07	3.6232905e-07	0.00018747416	0	0	0
1.3060218883302856e-09	0.00040707138	-0.000534164	0.94038725	-2.944078e-07	3.0182127e-07	0.00018747756	0	0	0
1.3080332363792245e-09	0.0004935165	-0.000496446	0.94034517	-3.4879048e-07	2.7249098e-07	0.00018745518	0	0	0
1.3100395918108956e-09	0.0005074097	-0.00042597912	0.940365	-3.5259313e-07	2.200959e-07	0.00018751489	0	0	0
1.3120280165718235e-09	0.00047882143	-0.00037354085	0.94033337	-3.263485e-07	1.8013975e-07	0.00018752035	0	0	0
1.314020965031195e-09	0.00046487193	-0.0002751172	0.9402466	-3.0930534e-07	1.0857366e-07	0.00018744709	0	0	0
1.3160246813893002e-09	0.00046502944	-0.0002990848	0.9402486	-3.0108794e-07	1.2269447e-07	0.00018749393	0	0	0
1.318023837316004e-09	0.00041723446	-0.0002528773	0.9401905	-2.5877304e-07	8.866118e-08	0.00018746371	0	0	0
1.3200234958116477e-09	0.00041114964	-0.0001910261	0.94016474	-2.4474852e-07	4.4843546e-08	0.00018747276	0	0	0
1.3220448968127728e-09	0.00043918905	-0.00016215356	0.9401256	-2.5356263e-07	2.5383088e-08	0.00018746345	0	0	0
1.3240745079695317e-09	0.00042359083	-0.00016478851	0.9400609	-2.3080202e-07	2.9460352e-08	0.00018742039	0	0	0
1.326099148469683e-09	0.00041035493	-0.00014613173	0.94005156	-2.090672e-07	2.0546452e-08	0.00018745633	0	0	0
1.3281420622702468e-09	0.00039531346	-7.2985466e-05	0.940035	-1.856871e-07	-2.3959728e-08	0.00018747096	0	0	0
1.3301353692006922e-09	0.00040459106	-7.7228775e-05	0.9399806	-1.802739e-07	-1.23122845e-08	0.00018744534	0	0	0
1.332178855478091e-09	0.00045909686	-3.8908336e-05	0.9399471	-2.0733438e-07	-2.777324e-08	0.00018744305	0	0	0
1.3341790299349202e-09	0.00037623435	-1.9509938e-05	0.9399015	-1.4044608e-07	-2.813249e-08	0.00018742573	0	0	0
1.3361967474779474e-09	0.00034221527	-2.5813724e-05	0.9398834	-1.09101705e-07	-8.685674e-09	0.00018743775	0	0	0
1.338206031526484e-09	0.00027759635	-3.965944e-05	0.9398562	-5.900702e-08	1.7309503e-08	0.00018744671	0	0	0
1.3402246191403584e-09	0.0002935269	5.13012e-05	0.93983775	-6.758373e-08	-2.8679096e-08	0.00018746113	0	0	0
1.342250894223465e-09	0.00024696658	1.0122923e-05	0.93977576	-3.5438177e-08	1.738681e-08	0.00018741822	0	0	0
1.3442594247601204e-09	0.00029048708	6.5376116e-05	0.9397427	-6.832494e-08	-4.353751e-09	0.00018740955	0	0	0
1.346221255433492e-09	0.00030371523	0.00014532372	0.93971556	-8.241932e-08	-4.4358785e-08	0.00018741052	0	0	0
1.3482327185645206e-09	0.0002617689	0.00022122776	0.93968076	-6.032775e-08	-8.1905455e-08	0.00018740009	0	0	0
1.3502360061749168e-09	0.0002527241	0.00028010466	0.93970716	-6.296642e-08	-1.0915505e-07	0.00018746025	0	0	0
1.3522508137606812e-09	0.00019574072	0.0002729121	0.9396685	-3.345474e-08	-9.218775e-08	0.00018743462	0	0	0
1.3542711335281124e-09	0.0002573686	0.00026206367	0.93966496	-8.709165e-08	-7.386515e-08	0.00018746394	0	0	0
1.3562682939915534e-09	0.0001684849	0.00031536835	0.93964016	-3.651502e-08	-1.0226972e-07	0.00018747	0	0	0
1.3582207573926884e-09	0.00016254737	0.00039993128	0.93965226	-4.350545e-08	-1.544604e-07	0.00018751778	0	0	0
1.3602528921182145e-09	0.00018876832	0.00047550173	0.9396475	-7.30447e-08	-2.0122388e-07	0.00018753916	0	0	0
1.3622812279234051e-09	0.00012499935	0.0004761964	0.9396184	-3.9120692e-08	-1.9696927e-07	0.00018753926	0	0	0
1.3642875295978827e-09	7.5673706e-05	0.00049427425	0.9396364	-1.5241454e-08	-2.0612242e-07	0.00018759606	0	0	0
1.3663020369127729e-09	8.561464e-05	0.0005075649	0.9396464	-3.301068e-08	-2.1256255e-07	0.00018764749	0	0	0
1.3683151377912887e-09	9.473451e-06	0.0004423783	0.93960255	8.642672e-09	-1.6510626e-07	0.00018763085	0	0	0
1.3703258684834013e-09	-6.996771e-05	0.00046396628	0.93956774	5.2701836e-08	-1.7852108e-07	0.00018763033	0	0	0
1.3723104094330388e-09	-8.797093e-05	0.00045761085	0.93950194	5.4035496e-08	-1.736621e-07	0.00018759073	0	0	0
1.3743290359513786e-09	-0.0002092513	0.00049989804	0.93944436	1.2730726e-07	-2.0426768e-07	0.0001875577	0	0	0
1.3760183712724498e-09	-0.00024200999	0.0004410531	0.9394304	1.4116006e-07	-1.6553773e-07	0.00018757195	0	0	0
1.378043172012406e-09	-0.00022656724	0.00034342142	0.93940943	1.2002002e-07	-1.012379e-07	0.00018758336	0	0	0
1.3800328469762724e-09	-0.0002757554	0.00026685672	0.93938	1.440952e-07	-5.2026735e-08	0.00018758462	0	0	0
1.382020038367679e-09	-0.00029077177	0.00024351927	0.93937474	1.4463038e-07	-4.0439545e-08	0.0001876125	0	0	0
1.3840141962435401e-09	-0.00030506196	0.00018783516	0.939353	1.4503283e-07	-6.7166184e-09	0.00018761221	0	0	0
1.3860511207373662e-09	-0.00029237106	0.00019625443	0.939355	1.2686806e-07	-1.825174e-08	0.00018764913	0	0	0
1.3880716114853857e-09	-0.0003959501	0.00020049865	0.9393819	1.896152e-07	-2.7164788e-08	0.00018770677	0	0	0
1.3900725091742377e-09	-0.00034025803	0.00014605216	0.93934524	1.4177061e-07	4.3667683e-09	0.00018769721	0	0	0
1.392081032606774e-09	-0.00039898898	0.0001246258	0.9393312	1.7327332e-07	1.2372311e-08	0.00018771092	0	0	0
1.39411685296744e-09	-0.0003673853	0.00012347742	0.9392983	1.4182518e-07	4.8701168e-09	0.00018769666	0	0	0
1.3960793607813902e-09	-0.0003611214	1.2987247e-05	0.9392589	1.2836495e-07	7.189112e-08	0.00018768042	0	0	0
1.3980887223920382e-09	-0.0003290044	-5.2476033e-05	0.9392368	9.71047e-08	1.0579316e-07	0.00018768288	0	0	0
1.4000944391169723e-09	-0.0003367876	-0.00013508633	0.9391615	9.40729e-08	1.5056958e-07	0.00018761764	0	0	0
1.4021124534265003e-09	-0.00029890498	-0.00016263821	0.9391354	5.984225e-08	1.5570458e-07	0.00018761632	0	0	0
1.4041338284928528e-09	-0.0003232852	-0.00016274772	0.93912923	7.0373375e-08	1.3977842e-07	0.00018763357	0	0	0
1.4061491565790884e-09	-0.00037054575	-0.00022782388	0.93912697	9.831339e-08	1.676691e-07	0.0001876606	0	0	0
1.4081651392837344e-09	-0.0003605512	-0.0002951044	0.9391037	8.8666496e-08	1.9565914e-07	0.00018766378	0	0	0
1.4101778813798194e-09	-0.00036285468	-0.0003271788	0.93909514	9.021298e-08	1.980909e-07	0.00018768234	0	0	0
1.4122081930064372e-09	-0.00033047353	-0.0003198093	0.9390338	7.0229305e-08	1.725175e-07	0.00018763928	0	0	0
1.4142217113402144e-09	-0.00026273765	-0.00044463747	0.9389965	2.8267976e-08	2.3912253e-07	0.00018762588	0	0	0
1.4162103458015792e-09	-0.00027300912	-0.00050300604	0.93895847	4.3324263e-08	2.6007206e-07	0.00018761112	0	0	0
1.4182011256449174e-09	-0.00029555647	-0.00051285326	0.93891954	6.98127e-08	2.4877272e-07	0.00018759264	0	0	0
1.4202202171438645e-09	-0.00024056909	-0.0005966175	0.93890953	4.53104e-08	2.9091052e-07	0.00018761445	0	0	0
1.4222308249645628e-09	-0.00021557431	-0.000609239	0.93890935	4.34363e-08	2.8569923e-07	0.00018764293	0	0	0
1.42424869332136e-09	-0.00017188986	-0.00066428806	0.9388727	3.0388605e-08	3.124411e-07	0.00018763766	0	0	0
1.4262701053827018e-09	-0.00021677399	-0.00070737704	0.93882847	8.044819e-08	3.332807e-07	0.00018761502	0	0	0
1.428264526709886e-09	-8.908506e-05	-0.0006639551	0.9388274	1.1347595e-08	2.961866e-07	0.00018765009	0	0	0
1.4302615534611516e-09	-2.5610172e-05	-0.0007144479	0.93880624	-1.2739463e-08	3.2699336e-07	0.00018765962	0	0	0
1.4322766573406898e-09	4.6487152e-05	-0.0007262933	0.93868065	-4.178125e-08	3.3328888e-07	0.0001875459	0	0	0
1.4342875148925737e-09	0.00016654565	-0.00079912145	0.93867654	-1.0378051e-07	3.8521256e-07	0.00018757672	0	0	0
1.4363367193046208e-09	0.00033502383	-0.0008658017	0.9386957	-1.9976528e-07	4.3606087e-07	0.00018763241	0	0	0
1.4380001176283486e-09	0.00039985366	-0.0008880381	0.93866557	-2.2822383e-07	4.5701836e-07	0.00018762768	0	0	0
1.4403149193623709e-09	0.00046649747	-0.0008785998	0.93859404	-2.5279863e-07	4.6081823e-07	0.00018758184	0	0	0
1.4423235752143692e-09	0.0005148175	-0.0007970822	0.93859684	-2.7010987e-07	4.1562816e-07	0.00018762979	0	0	0
1.4440160383092967e-09	0.0006576564	-0.00072482607	0.9385269	-3.5732194e-07	3.7629252e-07	0.00018757411	0	0	0
1.4460142721308105e-09	0.00076695334	-0.0006270853	0.9384743	-4.2083107e-07	3.2254957e-07	0.00018754673	0	0	0
1.4480037825740244e-09	0.0007714443	-0.000535813	0.93842745	-4.1338194e-07	2.741158e-07	0.0001875196	0	0	0
1.450011891461626e-09	0.00083268574	-0.00039133383	0.93842393	-4.4721327e-07	1.890242e-07	0.00018755344	0	0	0
1.452033964843518e-09	0.0008369945	-0.00032784123	0.93839073	-4.4304534e-07	1.6031026e-07	0.00018754863	0	0	0
1.4540250858574237e-09	0.0008087256	-0.00019423838	0.9383699	-4.1781828e-07	8.293955e-08	0.00018755658	0	0	0
1.4560362530353617e-09	0.0008367357	-4.3611453e-05	0.93834525	-4.336361e-07	-6.0417733e-09	0.00018756211	0	0	0
1.4580513572722088e-09	0.0008666705	1.43994785e-05	0.9383381	-4.527997e-07	-3.071932e-08	0.00018758012	0	0	0
1.4600391498217887e-09	0.0008483369	0.00010100993	0.9382833	-4.397841e-07	-7.578319e-08	0.00018753941	0	0	0
1.4620456267007716e-09	0.0008750381	0.00013261077	0.9382593	-4.5953198e-07	-8.2902716e-08	0.00018754142	0	0	0
1.4640421801928423e-09	0.00079756294	0.00021320613	0.93820345	-4.0823943e-07	-1.246857e-07	0.00018749827	0	0	0
1.4660405385777332e-09	0.00075430877	0.00034242216	0.93814933	-3.81682e-07	-2.0052332e-07	0.00018746019	0	0	0
1.4680217044495976e-09	0.0007254722	0.00039012366	0.93815506	-3.6595338e-07	-2.2061101e-07	0.00018749388	0	0	0
1.4700221730780733e-09	0.00069571275	0.0005025831	0.9381379	-3.502987e-07	-2.8656495e-07	0.00018750592	0	0	0
1.4720518182156276e-09	0.0006225785	0.00062866573	0.9381151	-3.0519539e-07	-3.6283473e-07	0.0001875078	0	0	0
1.4740838271233672e-09	0.000612866	0.00067828	0.93811446	-3.048632e-07	-3.8602138e-07	0.00018753743	0	0	0
1.4760834606265668e-09	0.00063756295	0.0007149582	0.93807286	-3.296937e-07	-4.004412e-07	0.00018752531	0	0	0
1.478092382485967e-09	0.00062843185	0.00075498375	0.9380369	-3.3187266e-07	-4.1771273e-07	0.00018751931	0	0	0
1.4800768119149322e-09	0.0006100586	0.0007818143	0.937986	-3.282987e-07	-4.2671763e-07	0.00018749424	0	0	0
1.4820445748442477e-09	0.0005028676	0.0008383317	0.9379225	-2.6336158e-07	-4.5728962e-07	0.00018744904	0	0	0
1.4840252936958395e-09	0.00045018908	0.00081527873	0.93788654	-2.374777e-07	-4.3331795e-07	0.00018744242	0	0	0
1.4860275641283503e-09	0.00041661522	0.0008325629	0.937908	-2.2639114e-07	-4.38215e-07	0.00018750425	0	0	0
1.4880483451729318e-09	0.00029106945	0.0007909246	0.93786746	-1.525452e-07	-4.028866e-07	0.00018748835	0	0	0
1.4900268092555922e-09	0.00023601868	0.00082317815	0.93780804	-1.277815e-07	-4.2028114e-07	0.00018745172	0	0	0
1.4920302727357715e-09	0.00018555175	0.00079698657	0.93779624	-1.07113095e-07	-3.980997e-07	0.00018747573	0	0	0
1.4940697503137716e-09	0.00016046944	0.00082876364	0.9377559	-1.0467693e-07	-4.1795101e-07	0.00018745344	0	0	0
1.4960834694245375e-09	0.00014996839	0.00082174165	0.9376906	-1.11765246e-07	-4.1344356e-07	0.00018740949	0	0	0
1.4980889268465854e-09	9.285704e-05	0.000733249	0.9376658	-8.636118e-08	-3.5398125e-07	0.00018741656	0	0	0
1.5001295526062829e-09	3.891589e-05	0.0007419763	0.9376332	-6.306607e-08	-3.6363508e-07	0.0001874068	0	0	0
1.5021439983110576e-09	-2.4680801e-05	0.00073158025	0.9376651	-3.2088252e-08	-3.61013e-07	0.00018747276	0	0	0
1.5041709057529285e-09	-3.5825207e-05	0.00072569825	0.9376691	-3.6692256e-08	-3.6256756e-07	0.00018750475	0	0	0
1.5061902759770974e-09	-9.043312e-05	0.0007117293	0.9376252	-1.0312192e-08	-3.5953326e-07	0.00018747916	0	0	0
1.508199153865439e-09	-0.00015674856	0.0007448901	0.9376047	2.50173e-08	-3.9026895e-07	0.00018747881	0	0	0
1.5102017638232666e-09	-0.00015525671	0.0007177983	0.93758	1.3688293e-08	-3.7967948e-07	0.00018748191	0	0	0
1.512209513088487e-09	-0.00017671334	0.0006552702	0.93755215	1.8864597e-08	-3.452751e-07	0.00018747755	0	0	0
1.514205703408447e-09	-0.00017158201	0.00062666665	0.937508	6.668216e-09	-3.351215e-07	0.00018744843	0	0	0
1.5161921160065416e-09	-0.00017925962	0.00056004897	0.9374653	4.3890793e-09	-2.9933926e-07	0.00018742996	0	0	0
1.5181751985709236e-09	-0.00025460817	0.0005279655	0.93748105	4.999285e-08	-2.885845e-07	0.00018748581	0	0	0
1.5201876576600355e-09	-0.00026451913	0.0004966604	0.93747073	5.0704188e-08	-2.796187e-07	0.00018750809	0	0	0
1.5222101368965226e-09	-0.00035588825	0.0005139002	0.9374425	1.09651864e-07	-3.0471597e-07	0.00018750192	0	0	0
1.5242379760406688e-09	-0.0003732993	0.0004932988	0.93747264	1.1862818e-07	-3.0427645e-07	0.00018757305	0	0	0
1.526266064011131e-09	-0.00035119313	0.000483691	0.9374545	1.01437394e-07	-3.119585e-07	0.00018758302	0	0	0
1.528242595736667e-09	-0.00037549128	0.00035892497	0.93747854	1.1726456e-07	-2.3965504e-07	0.00018764727	0	0	0
1.5302622338742363e-09	-0.00040468527	0.00033733636	0.9374832	1.3713773e-07	-2.3949724e-07	0.00018769683	0	0	0
1.5322634200082428e-09	-0.0004383574	0.00032970912	0.9374817	1.6127422e-07	-2.4957603e-07	0.00018772995	0	0	0
1.534280188107026e-09	-0.0004530092	0.0002793692	0.93748206	1.739663e-07	-2.30164e-07	0.0001877695	0	0	0
1.5362720528174195e-09	-0.00041690347	0.00019833236	0.93737537	1.5261188e-07	-1.8889432e-07	0.00018767852	0	0	0
1.538286432568813e-09	-0.00041021142	0.00014863384	0.93733263	1.5286594e-07	-1.69347e-07	0.00018767093	0	0	0
1.540298134603122e-09	-0.00036882414	0.00011038408	0.9372886	1.3079341e-07	-1.5741443e-07	0.00018766132	0	0	0
1.5423211979287053e-09	-0.00037543324	0.000103722305	0.9372469	1.4359603e-07	-1.6742092e-07	0.00018765092	0	0	0
1.5443249392036902e-09	-0.00041650693	2.3539254e-05	0.9372071	1.819023e-07	-1.2553346e-07	0.00018764734	0	0	0