# t (s)	mx ()	my ()	mz ()	B_extx (T)	B_exty (T)	B_extz (T)	E_total (J)	E_anis (J)	E_demag (J)	E_exch (J)	E_Zeeman (J)	ext_topologicalcharge ()	Temp (K)	LastErr ()
0	0	0	1	0	0	0.25	-1.7632664e-16	-6.291456e-16	6.5476753e-16	-1.3653335e-18	-2.62144e-16	0	750	0
1.0018210658540631e-11	-0.00452468	-0.0010242856	0.89550114	0	0	0.25	2.9469047e-16	-5.1139307e-16	5.4853637e-16	5.01514e-16	-2.3475023e-16	-0.5927432	750	3.120228e-06
2.0022283314879398e-11	-0.0034348096	-0.0002987159	0.85895693	0	0	0.25	4.1117947e-16	-4.766797e-16	5.1420776e-16	5.9356967e-16	-2.2517042e-16	-3.7992692	750	4.6642895e-06
3.008785397343163e-11	-0.0016229938	-0.0022765715	0.84030735	0	0	0.25	4.2480005e-16	-4.6030004e-16	4.974416e-16	6.1774896e-16	-2.202815e-16	-2.4891725	750	4.5840975e-06
4.001962279936372e-11	-0.0015717151	-0.00079727726	0.82670575	0	0	0.25	4.5123886e-16	-4.49043e-16	4.8570426e-16	6.3057336e-16	-2.1671595e-16	-3.0389137	750	3.29967e-06
5.0135429330776175e-11	-0.0022054089	-0.0005295818	0.8157242	0	0	0.25	4.675446e-16	-4.3991675e-16	4.762179e-16	6.4452304e-16	-2.138372e-16	-3.3717844	750	2.6124508e-06
6.007629740932332e-11	-0.001990115	-0.00042468728	0.80944574	0	0	0.25	4.537526e-16	-4.352531e-16	4.70804e-16	6.4462394e-16	-2.1219135e-16	-4.8510823	750	3.1833304e-06
7.004701342540943e-11	-0.0029363877	0.00049913453	0.80423373	0	0	0.25	4.819001e-16	-4.312594e-16	4.665719e-16	6.5177735e-16	-2.1082503e-16	-4.689131	750	3.1384886e-06
8.001467931487255e-11	-0.002532223	7.312605e-05	0.79891443	0	0	0.25	4.798657e-16	-4.2679311e-16	4.6186123e-16	6.5433533e-16	-2.094306e-16	-4.081625	750	3.890174e-06
9.014490878926735e-11	-0.0014605273	-0.00023055566	0.79563814	0	0	0.25	4.9823494e-16	-4.2447632e-16	4.5921997e-16	6.58589e-16	-2.0857179e-16	-4.36711	750	4.147072e-06
1.0004674286483815e-10	-0.0010751565	-3.3172546e-06	0.79258704	0	0	0.25	4.915866e-16	-4.222174e-16	4.567781e-16	6.5932494e-16	-2.0777195e-16	-7.378698	750	3.571703e-06
1.1012663777126884e-10	-0.0008445969	0.00050118496	0.7889885	0	0	0.25	5.001975e-16	-4.191045e-16	4.535092e-16	6.633911e-16	-2.0682858e-16	-6.6552114	750	3.018603e-06
1.200256578863783e-10	-0.0029469796	-0.00018013013	0.7859731	0	0	0.25	4.934952e-16	-4.169067e-16	4.5126586e-16	6.650014e-16	-2.060381e-16	-4.3137403	750	3.7188595e-06
1.3007865836125833e-10	-0.0062215663	0.0022377186	0.7847988	0	0	0.25	4.9315603e-16	-4.166325e-16	4.503408e-16	6.586331e-16	-2.0573031e-16	-7.721332	750	2.512741e-06
1.400448767879545e-10	-0.008247662	5.8660982e-05	0.7828171	0	0	0.25	5.0313254e-16	-4.1473118e-16	4.4836175e-16	6.6577197e-16	-2.0521082e-16	-5.3359675	750	3.3686892e-06
1.500495457515692e-10	-0.007580268	0.00045038265	0.782851	0	0	0.25	4.8640285e-16	-4.145884e-16	4.481827e-16	6.5969716e-16	-2.052197e-16	-4.1084356	750	3.4498835e-06
1.6004799408205295e-10	-0.0066237953	-0.0023981659	0.7823708	0	0	0.25	4.864455e-16	-4.1432016e-16	4.478294e-16	6.6162024e-16	-2.0509381e-16	-5.048746	750	4.103714e-06
1.7006978426623055e-10	-0.0074944734	-0.0013995934	0.781171	0	0	0.25	4.833615e-16	-4.1335555e-16	4.469914e-16	6.6375963e-16	-2.047793e-16	-4.9864693	750	2.7709057e-06
1.8008108182609278e-10	-0.007185387	-0.0055962205	0.7822143	0	0	0.25	4.8785863e-16	-4.1368785e-16	4.4733605e-16	6.576215e-16	-2.0505275e-16	-5.917936	750	2.762043e-06
1.9007745389024773e-10	-0.0050818576	-0.009107876	0.779558	0	0	0.25	4.9307074e-16	-4.1272265e-16	4.460133e-16	6.587866e-16	-2.0435645e-16	-3.418902	750	3.8253283e-06
2.0008090823494789e-10	-0.0017454418	-0.011198256	0.7781695	0	0	0.25	4.9134454e-16	-4.1117012e-16	4.4464073e-16	6.612522e-16	-2.0399247e-16	-4.0544047	750	3.4934328e-06
2.100787420257446e-10	0.0013192728	-0.012717754	0.77769077	0	0	0.25	4.9013313e-16	-4.1106302e-16	4.4445576e-16	6.6008536e-16	-2.0386695e-16	-5.2468286	750	3.3645058e-06
2.2012547444974625e-10	0.0025098529	-0.01366512	0.77676797	0	0	0.25	4.855182e-16	-4.1026276e-16	4.4354102e-16	6.593881e-16	-2.0362504e-16	-6.45561	750	2.3129148e-06
2.3006745653183833e-10	0.0043876786	-0.014624313	0.7761062	0	0	0.25	4.9143687e-16	-4.0983856e-16	4.431539e-16	6.614971e-16	-2.0345158e-16	-4.31156	750	4.0371433e-06
2.4008222655034683e-10	0.0071956227	-0.009594161	0.77435994	0	0	0.25	4.930675e-16	-4.081261e-16	4.41208e-16	6.644714e-16	-2.0299381e-16	-4.9205117	750	2.6407765e-06
2.5004735794458553e-10	0.0073169256	-0.008509403	0.77356046	0	0	0.25	5.000548e-16	-4.0775507e-16	4.407914e-16	6.6330165e-16	-2.0278424e-16	-6.4744854	750	5.3902936e-06
2.600224421023645e-10	0.008241225	-0.005929437	0.7727238	0	0	0.25	4.884048e-16	-4.0733166e-16	4.40181e-16	6.640437e-16	-2.0256491e-16	-5.243661	750	3.4753816e-06
2.700699013726287e-10	0.010344364	-0.0025209924	0.77182806	0	0	0.25	4.9286894e-16	-4.0708928e-16	4.4009103e-16	6.632711e-16	-2.0233011e-16	-4.654588	750	2.7249378e-06
2.8006435455558235e-10	0.007878161	0.00071282825	0.7710016	0	0	0.25	5.0832634e-16	-4.0662545e-16	4.3936655e-16	6.623392e-16	-2.0211346e-16	-8.40912	750	7.607104e-06
2.9002978926111247e-10	0.010883224	-0.0016834307	0.77170765	0	0	0.25	4.9651716e-16	-4.0685856e-16	4.3974872e-16	6.6260873e-16	-2.0229851e-16	-5.5753684	750	2.6118735e-06
3.000764109947241e-10	0.008064988	-4.7526963e-05	0.7711085	0	0	0.25	4.8160303e-16	-4.063489e-16	4.3921305e-16	6.629767e-16	-2.0214145e-16	-7.7242746	750	3.1747759e-06
3.100406735532748e-10	0.0075067645	0.000753541	0.77173835	0	0	0.25	5.024795e-16	-4.070785e-16	4.4003105e-16	6.660883e-16	-2.0230658e-16	-6.98105	750	2.8072375e-06
3.200162540354207e-10	0.004080454	0.0008257057	0.7743073	0	0	0.25	4.9981545e-16	-4.0793673e-16	4.4105823e-16	6.6166503e-16	-2.0298004e-16	-8.2816	750	2.80716e-06
3.300799416527632e-10	0.00024086324	-0.0017612542	0.7739748	0	0	0.25	4.9528653e-16	-4.0837698e-16	4.4138744e-16	6.6184815e-16	-2.0289283e-16	-9.370936	750	3.3029946e-06
3.40121581647288e-10	0.0032327157	-0.0018251021	0.7733793	0	0	0.25	4.881394e-16	-4.072721e-16	4.4030154e-16	6.605803e-16	-2.0273674e-16	-7.67269	750	3.1663576e-06
3.5006613024562714e-10	-0.0001382705	7.994566e-05	0.77189523	0	0	0.25	5.0081755e-16	-4.0647838e-16	4.3933346e-16	6.6600554e-16	-2.0234769e-16	-6.1697283	750	2.318536e-06
3.600250372150885e-10	-0.0003005573	0.0029996294	0.77360004	0	0	0.25	5.051537e-16	-4.0812641e-16	4.4107827e-16	6.6271445e-16	-2.0279462e-16	-7.0513396	750	2.1075812e-06
3.700509212562651e-10	-0.00062239176	0.004194009	0.7720762	0	0	0.25	4.961001e-16	-4.0666592e-16	4.3963308e-16	6.620366e-16	-2.0239516e-16	-5.3692336	750	4.390379e-06
3.8013023949566513e-10	0.00065809337	0.0030797236	0.77180487	0	0	0.25	4.9154714e-16	-4.0575395e-16	4.3883043e-16	6.665922e-16	-2.0232402e-16	-5.4546766	750	3.3602396e-06
3.900952284085738e-10	0.0019206952	0.0022509904	0.7721232	0	0	0.25	4.929875e-16	-4.0617276e-16	4.393711e-16	6.651981e-16	-2.0240748e-16	-8.2054205	750	3.6340352e-06
4.00064537050399e-10	-0.0003853587	0.006436807	0.7725776	0	0	0.25	4.934366e-16	-4.0726106e-16	4.400135e-16	6.6162395e-16	-2.0252656e-16	-8.695256	750	2.9177556e-06
4.100936305400068e-10	-0.0021944002	0.003530827	0.7720993	0	0	0.25	4.9234537e-16	-4.070364e-16	4.398767e-16	6.602086e-16	-2.0240118e-16	-5.5177445	750	2.8675165e-06
4.201008570172721e-10	-0.003892356	0.002978916	0.77088916	0	0	0.25	4.8676824e-16	-4.0593908e-16	4.3861293e-16	6.6526566e-16	-2.0208397e-16	-4.7184124	750	4.8043735e-06
4.3011980479434596e-10	-0.0033232714	0.0016844313	0.7701909	0	0	0.25	4.8808865e-16	-4.05607e-16	4.3842423e-16	6.639894e-16	-2.0190093e-16	-8.524371	750	4.502535e-06
4.4011761832288125e-10	-0.001393522	0.0018053503	0.7686729	0	0	0.25	4.976699e-16	-4.0520727e-16	4.3780454e-16	6.6310117e-16	-2.0150298e-16	-7.002822	750	2.8053223e-06
4.5005209667484076e-10	-0.0015799198	0.003022681	0.7673604	0	0	0.25	5.0505536e-16	-4.0342297e-16	4.3618613e-16	6.664803e-16	-2.0115892e-16	-5.3903084	750	2.519483e-06
4.6009733312412116e-10	-0.0008505876	0.0006180613	0.76647925	0	0	0.25	4.929488e-16	-4.0334348e-16	4.3585073e-16	6.6622746e-16	-2.009279e-16	-6.1998944	750	2.8487318e-06
4.701220160124869e-10	0.001106133	-0.0029731942	0.7668444	0	0	0.25	5.0855694e-16	-4.0343782e-16	4.3628994e-16	6.652666e-16	-2.0102367e-16	-6.536978	750	2.8910192e-06
4.800414450841236e-10	0.0032043925	-0.0032556576	0.7663461	0	0	0.25	4.9820376e-16	-4.0320055e-16	4.3586767e-16	6.66471e-16	-2.0089304e-16	-5.3236914	750	2.080576e-06
4.900341138563713e-10	0.0050883554	-0.0046665063	0.7673443	0	0	0.25	5.0410483e-16	-4.0477105e-16	4.3725508e-16	6.681862e-16	-2.011547e-16	-5.4504657	750	3.36995e-06
5.000859342777943e-10	0.009835634	-0.0013090713	0.76911557	0	0	0.25	4.857422e-16	-4.0572584e-16	4.3839755e-16	6.6337275e-16	-2.0161904e-16	-9.32932	750	3.9605243e-06
5.101028718496316e-10	0.011723263	0.00091253873	0.76849395	0	0	0.25	4.9113035e-16	-4.057628e-16	4.3830548e-16	6.664089e-16	-2.0145609e-16	-7.6157656	750	4.4663775e-06
5.200228122261376e-10	0.011082783	0.005415799	0.7688321	0	0	0.25	4.8493425e-16	-4.054525e-16	4.384041e-16	6.6610004e-16	-2.0154471e-16	-8.042087	750	3.1494428e-06
5.300453517676774e-10	0.008359419	0.0046542324	0.768307	0	0	0.25	4.8450105e-16	-4.0497521e-16	4.378365e-16	6.5921557e-16	-2.0140703e-16	-8.03748	750	2.2470879e-06
5.401343018464885e-10	0.0060639614	0.0071467035	0.7687431	0	0	0.25	5.023059e-16	-4.0545138e-16	4.3829826e-16	6.5986625e-16	-2.0152137e-16	-6.3253903	750	3.2804978e-06
5.500115197490633e-10	0.008098263	0.006428067	0.7695594	0	0	0.25	5.029537e-16	-4.055709e-16	4.3844485e-16	6.611417e-16	-2.0173538e-16	-7.4996624	750	3.2205096e-06
5.600290948759571e-10	0.0056754826	0.008684016	0.7705452	0	0	0.25	4.799484e-16	-4.069337e-16	4.3964446e-16	6.6098613e-16	-2.0199379e-16	-6.704822	750	3.8888948e-06
5.700105604640735e-10	0.0019934573	0.008001581	0.7697701	0	0	0.25	4.950178e-16	-4.0580065e-16	4.3847155e-16	6.663941e-16	-2.0179062e-16	-8.716521	750	3.427907e-06
5.800687490255715e-10	0.0016668303	0.004445722	0.7694201	0	0	0.25	5.237334e-16	-4.0525937e-16	4.3808928e-16	6.679547e-16	-2.0169885e-16	-4.1946692	750	3.102857e-06
5.901312884987346e-10	0.0018218539	0.0038837607	0.7706938	0	0	0.25	4.9596617e-16	-4.06293e-16	4.3921297e-16	6.623991e-16	-2.0203276e-16	-7.850336	750	3.6483168e-06
6.001008552130896e-10	0.0021793079	0.0033080375	0.77003247	0	0	0.25	4.879284e-16	-4.0582998e-16	4.388446e-16	6.644662e-16	-2.0185941e-16	-8.187477	750	3.1269878e-06
6.100039148578668e-10	0.0023958464	0.002587379	0.76995397	0	0	0.25	4.77596e-16	-4.0543806e-16	4.3849686e-16	6.6432434e-16	-2.0183879e-16	-8.051132	750	2.861208e-06
6.200156632452226e-10	0.004958963	0.002552596	0.7704792	0	0	0.25	5.023074e-16	-4.0625524e-16	4.390249e-16	6.6449645e-16	-2.0197648e-16	-5.8348203	750	2.965048e-06
6.300835770212764e-10	0.005509151	0.0052327244	0.76991963	0	0	0.25	5.1655706e-16	-4.0599321e-16	4.3895463e-16	6.6527275e-16	-2.0182979e-16	-6.79518	750	4.409523e-06
6.401035560629815e-10	0.0035454775	0.004979579	0.769972	0	0	0.25	4.8604286e-16	-4.06579e-16	4.3940218e-16	6.6332394e-16	-2.0184356e-16	-5.822502	750	3.2010391e-06
6.5004047520641e-10	0.002001705	0.0028202466	0.76882863	0	0	0.25	4.8179536e-16	-4.0589316e-16	4.3852968e-16	6.6450645e-16	-2.015438e-16	-6.4205036	750	4.7156936e-06
6.6012575468962e-10	0.0040500686	0.00023084227	0.7705987	0	0	0.25	4.9711554e-16	-4.0640315e-16	4.3929307e-16	6.64025e-16	-2.0200784e-16	-6.5760064	750	3.5547887e-06
6.701345362459665e-10	0.001683903	0.0023113862	0.77203274	0	0	0.25	4.9110436e-16	-4.0804894e-16	4.4095236e-16	6.625467e-16	-2.0238374e-16	-6.795883	750	2.2956701e-06
6.800254787700552e-10	0.00230532	0.0019453904	0.77193516	0	0	0.25	5.0836106e-16	-4.0762995e-16	4.4060063e-16	6.612125e-16	-2.0235818e-16	-6.278103	750	3.3765152e-06
6.900332386824416e-10	0.002904356	0.0037993588	0.7705107	0	0	0.25	5.031827e-16	-4.0714354e-16	4.3988983e-16	6.6169584e-16	-2.0198472e-16	-7.024597	750	4.452044e-06
7.001316095214314e-10	0.0008703158	0.007041187	0.7688563	0	0	0.25	4.9869827e-16	-4.0536964e-16	4.382119e-16	6.5841253e-16	-2.0155107e-16	-7.560794	750	2.5397658e-06
7.10010744415678e-10	-0.0037852125	0.0048468844	0.7681925	0	0	0.25	5.013796e-16	-4.0535013e-16	4.382268e-16	6.6219686e-16	-2.013771e-16	-8.715644	750	3.9389606e-06
7.20012654218176e-10	-0.0040072864	0.0023963386	0.7664289	0	0	0.25	4.901932e-16	-4.0406775e-16	4.3664474e-16	6.644168e-16	-2.0091473e-16	-9.890205	750	3.5146725e-06
7.300815615525941e-10	-0.0044950717	0.0033152988	0.7645107	0	0	0.25	4.98956e-16	-4.0273616e-16	4.353019e-16	6.6806156e-16	-2.0041189e-16	-11.294433	750	3.1099842e-06
7.400593720692174e-10	-0.0055043204	0.00046409364	0.7633511	0	0	0.25	4.9530246e-16	-4.0175675e-16	4.3422022e-16	6.6774244e-16	-2.0010792e-16	-8.05998	750	2.9444325e-06
7.50088991850181e-10	-0.004580031	-7.593958e-05	0.7642047	0	0	0.25	5.0569757e-16	-4.0267383e-16	4.3516085e-16	6.6547615e-16	-2.0033166e-16	-8.368385	750	2.9539756e-06
7.600044746346638e-10	-0.00299558	-0.0025870823	0.76555336	0	0	0.25	4.866874e-16	-4.0429896e-16	4.367651e-16	6.629429e-16	-2.0068521e-16	-8.264954	750	3.2211728e-06
7.70145209396997e-10	-0.0010229067	-0.0005480966	0.76746273	0	0	0.25	4.9417363e-16	-4.0472494e-16	4.3741742e-16	6.592843e-16	-2.0118574e-16	-9.017788	750	3.9096735e-06
7.801426430717832e-10	-0.0001126618	-0.0020511844	0.76689166	0	0	0.25	4.9046024e-16	-4.0395515e-16	4.3672135e-16	6.665968e-16	-2.0103606e-16	-7.2828503	750	3.505651e-06
7.901146354612366e-10	-0.0018777805	-0.00159572	0.7685364	0	0	0.25	4.930845e-16	-4.0480938e-16	4.3753595e-16	6.667095e-16	-2.014672e-16	-7.7243156	750	2.42219e-06
8.000196580716027e-10	-0.004717528	-0.002486363	0.7706286	0	0	0.25	4.93261e-16	-4.0661298e-16	4.3942402e-16	6.6458443e-16	-2.0201566e-16	-6.768657	750	3.0582119e-06
8.100119039088228e-10	-0.0055366126	-0.0042862855	0.7723963	0	0	0.25	5.0034845e-16	-4.0790963e-16	4.4064957e-16	6.602246e-16	-2.0247907e-16	-10.511362	750	3.0286137e-06
8.200188515189612e-10	-0.004366953	-0.007141295	0.7720865	0	0	0.25	5.13771e-16	-4.0745223e-16	4.403253e-16	6.6194344e-16	-2.0239785e-16	-6.1996984	750	3.6845151e-06
8.301132127328128e-10	-0.0051930263	-0.006930894	0.77245533	0	0	0.25	4.9254955e-16	-4.0814936e-16	4.4097883e-16	6.5799213e-16	-2.0249453e-16	-6.991828	750	3.8064727e-06
8.401487035084704e-10	-0.002775836	-0.010098182	0.7703065	0	0	0.25	5.136107e-16	-4.0618168e-16	4.390782e-16	6.647709e-16	-2.0193123e-16	-8.070643	750	4.0775803e-06
8.500203905919363e-10	-0.0016427813	-0.009603589	0.7711556	0	0	0.25	4.9336276e-16	-4.068269e-16	4.398207e-16	6.615832e-16	-2.0215382e-16	-7.644749	750	4.7855465e-06
8.600488199271431e-10	0.0013821049	-0.010680469	0.77088135	0	0	0.25	5.003793e-16	-4.0684125e-16	4.3963334e-16	6.665073e-16	-2.020819e-16	-7.7957335	750	3.6637466e-06
8.700753535534144e-10	0.0059114117	-0.00735482	0.76987004	0	0	0.25	4.954828e-16	-4.0585568e-16	4.387511e-16	6.689302e-16	-2.0181682e-16	-4.5890446	750	3.2531532e-06
8.801359604499636e-10	0.003853945	-0.0057289344	0.7711657	0	0	0.25	4.8957896e-16	-4.0640662e-16	4.3934056e-16	6.627516e-16	-2.0215647e-16	-6.9829874	750	3.536217e-06
8.901020045874154e-10	0.004366873	-0.0020174712	0.7721153	0	0	0.25	5.0212394e-16	-4.0723385e-16	4.4029196e-16	6.6294e-16	-2.0240542e-16	-5.129427	750	5.4378265e-06
9.000862656629058e-10	0.0053452197	-0.0005297003	0.77234644	0	0	0.25	4.9779443e-16	-4.0693064e-16	4.3987382e-16	6.635333e-16	-2.0246601e-16	-7.3151813	750	4.4767226e-06
9.100121073208357e-10	0.007740421	0.0008192966	0.77265066	0	0	0.25	5.0944564e-16	-4.0764144e-16	4.4066683e-16	6.6362575e-16	-2.0254575e-16	-6.334352	750	1.5637486e-06
9.200775207363389e-10	0.006328076	0.0049992744	0.7719115	0	0	0.25	5.009224e-16	-4.072706e-16	4.4030954e-16	6.654224e-16	-2.0235196e-16	-7.0195346	750	3.8227345e-06
9.300809889117158e-10	0.0063551003	0.005993922	0.77392757	0	0	0.25	4.836041e-16	-4.0892943e-16	4.418849e-16	6.592523e-16	-2.0288048e-16	-5.659741	750	3.758167e-06
9.401316911013726e-10	0.0036221603	0.007416223	0.77220577	0	0	0.25	4.8606255e-16	-4.0733312e-16	4.4031753e-16	6.6217605e-16	-2.0242911e-16	-6.9050236	750	2.5514773e-06
9.50074628472845e-10	0.0030022874	0.007358289	0.7721022	0	0	0.25	4.9053e-16	-4.072046e-16	4.401673e-16	6.638917e-16	-2.0240192e-16	-5.4510493	750	3.0792448e-06
9.600782383400424e-10	0.0011719427	0.009179376	0.77099407	0	0	0.25	4.9397167e-16	-4.0669644e-16	4.3961682e-16	6.6380124e-16	-2.0211148e-16	-6.733659	750	3.196065e-06
9.700805786057355e-10	0.0003589123	0.0070318757	0.77062815	0	0	0.25	5.0304085e-16	-4.0682127e-16	4.3968167e-16	6.6426007e-16	-2.0201556e-16	-5.745737	750	2.4022356e-06
9.80043297707101e-10	-0.0034378227	0.008654706	0.7704948	0	0	0.25	4.814245e-16	-4.0614695e-16	4.3908944e-16	6.66703e-16	-2.0198059e-16	-6.2395177	750	3.8025073e-06
9.901519584894623e-10	-0.00440122	0.0068586413	0.77197367	0	0	0.25	4.908408e-16	-4.0722308e-16	4.4024527e-16	6.649518e-16	-2.0236824e-16	-7.752991	750	3.4919474e-06
1.0000640681494757e-09	-0.007631261	0.005567403	0.772361	0	0	0.24999999	5.050197e-16	-4.0706593e-16	4.401316e-16	6.619559e-16	-2.0246975e-16	-5.965064	750	1.7777711e-07
1.0101036996794375e-09	-0.007940917	0.006588698	0.77261496	0	0	0.24998996	4.647941e-16	-4.0730516e-16	4.4019254e-16	6.5864086e-16	-2.0252817e-16	-7.781581	750	2.8738873e-06
1.020009612966719e-09	-0.008956407	0.0026541613	0.7726018	0	0	0.24997999	4.9203053e-16	-4.0737637e-16	4.403993e-16	6.623421e-16	-2.0251672e-16	-5.8200555	750	2.4892486e-06
1.0300965064034637e-09	-0.008734981	0.0027375603	0.77218646	0	0	0.24996994	5.1213174e-16	-4.0728123e-16	4.4022613e-16	6.6334374e-16	-2.0239967e-16	-4.622616	750	4.1292087e-06
1.040047438620415e-09	-0.008469356	0.0010406545	0.7728979	0	0	0.24995995	5.0733965e-16	-4.0765925e-16	4.406769e-16	6.632314e-16	-2.025781e-16	-5.0125947	750	5.128944e-06
1.0501081190754636e-09	-0.0057581076	-0.002785033	0.7736827	0	0	0.24994992	5.0161476e-16	-4.0849903e-16	4.4146063e-16	6.6113817e-16	-2.0277562e-16	-6.5591683	750	2.863753e-06
1.060120028995999e-09	-0.0047218855	-0.0034638434	0.77441806	0	0	0.2499399	5.0316335e-16	-4.0892292e-16	4.4192898e-16	6.611547e-16	-2.0296024e-16	-9.338461	750	3.1017978e-06
1.0700967820589355e-09	-0.007588841	-0.0050087357	0.7740255	0	0	0.2499299	4.8514087e-16	-4.0833547e-16	4.4138516e-16	6.608817e-16	-2.0284925e-16	-9.673709	750	2.6878072e-06
1.0801275032945478e-09	-0.002632359	-0.008493026	0.77301663	0	0	0.24991988	4.911757e-16	-4.0761298e-16	4.4073726e-16	6.643364e-16	-2.0257673e-16	-8.382458	750	2.740838e-06
1.0901184810737003e-09	0.0011117943	-0.0072870594	0.77211535	0	0	0.24990988	4.9094114e-16	-4.0703168e-16	4.402072e-16	6.6357265e-16	-2.0233244e-16	-7.0281887	750	2.322997e-06
1.1000984335635102e-09	0.00473135	-0.0050823246	0.77280706	0	0	0.24989988	4.9213747e-16	-4.077658e-16	4.4072482e-16	6.646669e-16	-2.0250567e-16	-6.9698806	750	3.013695e-06
1.1101429195650941e-09	0.005126681	-0.0025271303	0.77496314	0	0	0.24988985	4.8287035e-16	-4.0911996e-16	4.4221023e-16	6.612175e-16	-2.0306244e-16	-7.430608	750	3.8502653e-06
1.1200101764591789e-09	0.0031280275	-0.0015275854	0.7749466	0	0	0.24988005	5.017405e-16	-4.0870655e-16	4.4186075e-16	6.620054e-16	-2.0305006e-16	-3.3983672	750	2.7558003e-06
1.130091421637379e-09	0.0008296869	-0.0018330938	0.77372086	0	0	0.24986985	4.926783e-16	-4.080006e-16	4.4084235e-16	6.614364e-16	-2.0272075e-16	-8.237055	750	4.04059e-06
1.1400628923280981e-09	-0.0013626114	-0.0026218235	0.77381265	0	0	0.24986002	4.984214e-16	-4.0851256e-16	4.4142177e-16	6.6257056e-16	-2.027367e-16	-10.129982	750	3.1141376e-06
1.1501086062070802e-09	0.0015684464	-0.0011175359	0.7734214	0	0	0.24984983	4.848694e-16	-4.0823878e-16	4.410986e-16	6.599469e-16	-2.0262604e-16	-4.8308206	750	4.806875e-06
1.1600714219837131e-09	0.00052960205	0.00071974844	0.77320594	0	0	0.24983999	4.8784164e-16	-4.0845975e-16	4.4137847e-16	6.5953167e-16	-2.025615e-16	-8.11678	750	4.7478384e-06
1.1700123461842865e-09	-0.001505934	0.0021671832	0.7724659	0	0	0.24983	4.8899593e-16	-4.0793303e-16	4.410225e-16	6.6429533e-16	-2.023596e-16	-9.01822	750	4.195168e-06
1.1800248640421684e-09	-0.002616988	0.0023360113	0.7697667	0	0	0.24981998	4.824089e-16	-4.0623091e-16	4.3918145e-16	6.60189e-16	-2.0164444e-16	-9.439803	750	7.310353e-06
1.190014780557441e-09	-0.0054264506	-0.0009896518	0.7676822	0	0	0.24980998	4.9586346e-16	-4.0491256e-16	4.3761108e-16	6.649287e-16	-2.0109032e-16	-9.54324	750	2.6392345e-06
1.2001251369708285e-09	-0.0032220345	-0.0015854836	0.7674721	0	0	0.24979994	4.9568813e-16	-4.0410587e-16	4.3682476e-16	6.6202496e-16	-2.0102716e-16	-11.147406	750	3.6060942e-06
1.2101052878838282e-09	-0.00044685218	-0.001286915	0.76619565	0	0	0.24978994	4.9817957e-16	-4.036898e-16	4.361126e-16	6.671903e-16	-2.0068482e-16	-10.336591	750	3.2989533e-06
1.2200064128600369e-09	-0.0011802312	-0.004027874	0.7679492	0	0	0.24977995	5.00165e-16	-4.040165e-16	4.366456e-16	6.6118577e-16	-2.0113611e-16	-5.8138995	750	3.727229e-06
1.2300072471495343e-09	0.00046447903	-0.004349174	0.7701805	0	0	0.24976994	5.021537e-16	-4.0603858e-16	4.3866955e-16	6.5978403e-16	-2.0171245e-16	-8.109139	750	4.4203007e-06
1.2400388304511591e-09	0.00024660403	-0.004931854	0.76897216	0	0	0.24975993	4.942137e-16	-4.049274e-16	4.3776717e-16	6.6498995e-16	-2.0138788e-16	-7.654268	750	4.393108e-06
1.2500024577195718e-09	0.0027927235	-0.0036560798	0.76986074	0	0	0.24974993	5.0392166e-16	-4.054849e-16	4.3830196e-16	6.644954e-16	-2.0161256e-16	-6.676663	750	3.4940374e-06
1.2600070636577126e-09	0.0022855238	-0.005405888	0.7693594	0	0	0.24973992	5.0255534e-16	-4.052893e-16	4.3791143e-16	6.628142e-16	-2.0147319e-16	-8.9785795	750	4.40005e-06
1.2700979954811967e-09	0.002418983	-0.002036197	0.76896423	0	0	0.24972989	4.9941777e-16	-4.044547e-16	4.3726962e-16	6.6237256e-16	-2.0136158e-16	-7.38872	750	4.5221364e-06
1.280003817913924e-09	0.002405637	-0.00054054055	0.7700663	0	0	0.24972007	4.866346e-16	-4.0592e-16	4.3863106e-16	6.650675e-16	-2.0164218e-16	-7.2349887	750	2.9365551e-06
1.2900735821244057e-09	0.001719903	-0.001048795	0.77104163	0	0	0.24970987	4.8344347e-16	-4.0654953e-16	4.3935416e-16	6.6206356e-16	-2.0188942e-16	-8.443004	750	3.4510178e-06
1.3000464518076005e-09	0.0014668911	-0.0018684353	0.77072287	0	0	0.24970004	4.8262307e-16	-4.0602673e-16	4.389487e-16	6.660468e-16	-2.017979e-16	-7.470201	750	4.0439495e-06
1.3101152970688123e-09	0.000120602665	-0.00033369847	0.7704348	0	0	0.24968985	5.099028e-16	-4.0611932e-16	4.3897617e-16	6.6430496e-16	-2.0171433e-16	-6.2962475	750	2.7566766e-06
1.3201376750158283e-09	0.0008362187	-0.0016479717	0.77037835	0	0	0.24967982	4.9856195e-16	-4.0607644e-16	4.3887162e-16	6.64553e-16	-2.0169145e-16	-6.216353	750	4.4399335e-06
1.3300742937183285e-09	0.0026499503	-0.0022917544	0.77194613	0	0	0.24967	4.985931e-16	-4.070704e-16	4.401643e-16	6.633595e-16	-2.0209388e-16	-7.397394	750	3.416178e-06
1.340124947904058e-09	0.004722314	-0.002349555	0.77178544	0	0	0.2496598	4.964203e-16	-4.0704253e-16	4.3979968e-16	6.6179065e-16	-2.0204367e-16	-2.9344337	750	3.109638e-06
1.3501208900076892e-09	0.004215965	-0.002811361	0.7709895	0	0	0.24964997	5.02308e-16	-4.068931e-16	4.3969083e-16	6.637831e-16	-2.0182724e-16	-7.983783	750	5.0634158e-06
1.3600132869948776e-09	0.0038178759	-0.0012941172	0.77123815	0	0	0.24963999	5.0075026e-16	-4.069384e-16	4.3984796e-16	6.638632e-16	-2.0188433e-16	-5.9655185	750	4.208328e-06
1.3700574287908295e-09	0.0052515073	0.0009596038	0.7693594	0	0	0.24962996	5.034297e-16	-4.0569667e-16	4.385834e-16	6.697023e-16	-2.0138444e-16	-6.0124555	750	3.9047486e-06
1.3800480957905259e-09	0.002282414	0.0016312627	0.77023566	0	0	0.24961995	4.965774e-16	-4.065096e-16	4.393327e-16	6.6499694e-16	-2.0160571e-16	-6.421291	750	3.0255255e-06
1.3900125556404836e-09	0.0012386652	-0.0005331504	0.77128404	0	0	0.24960996	4.832276e-16	-4.073486e-16	4.40056e-16	6.6187075e-16	-2.0187207e-16	-8.97003	750	2.4264134e-06
1.4000793584934498e-09	0.0014993305	-0.00037260848	0.7711881	0	0	0.24959992	4.833565e-16	-4.0695108e-16	4.397786e-16	6.6115744e-16	-2.0183877e-16	-7.2640543	750	3.4051188e-06
1.4100981626967788e-09	0.0046769567	0.0021159502	0.7717757	0	0	0.2495899	4.8824975e-16	-4.0792395e-16	4.4080256e-16	6.587662e-16	-2.0198452e-16	-6.359747	750	3.7923505e-06
1.4201475919468067e-09	0.0023958301	-8.103717e-05	0.7718361	0	0	0.24957989	4.7940704e-16	-4.0754114e-16	4.4023124e-16	6.587154e-16	-2.0199216e-16	-7.129291	750	3.3586725e-06
1.4301066530476588e-09	0.0047004484	-0.000806362	0.77161497	0	0	0.2495699	4.998221e-16	-4.0731625e-16	4.4024508e-16	6.607163e-16	-2.0192625e-16	-9.617806	750	3.64843e-06
1.4400071981226526e-09	0.0051516877	-0.0007154993	0.7721116	0	0	0.24955991	5.0059446e-16	-4.0756173e-16	4.4065698e-16	6.6337593e-16	-2.0204818e-16	-6.530983	750	3.348086e-06
1.450014192595717e-09	0.0005133655	0.0004769778	0.77241814	0	0	0.2495499	5.0396126e-16	-4.0752886e-16	4.405918e-16	6.5973776e-16	-2.021203e-16	-10.864076	750	2.8498548e-06
1.4600061027551566e-09	-0.00051210425	0.001833119	0.77122295	0	0	0.24954006	5.0105784e-16	-4.0715121e-16	4.4011186e-16	6.6773757e-16	-2.0179945e-16	-7.737496	750	2.733734e-06
1.4700556259426691e-09	-0.002183954	0.004206257	0.7711882	0	0	0.24952987	4.919256e-16	-4.0644537e-16	4.394809e-16	6.6477237e-16	-2.0178225e-16	-4.6482115	750	1.8847679e-06
1.4800201506193317e-09	-0.0036179395	0.0017266483	0.7730308	0	0	0.24952003	5.0070823e-16	-4.0813226e-16	4.4128145e-16	6.632763e-16	-2.0225629e-16	-8.244634	750	4.1498556e-06
1.490086371647926e-09	-0.0036045974	-0.0013356402	0.7736591	0	0	0.24950984	4.899356e-16	-4.0898742e-16	4.420055e-16	6.625695e-16	-2.0241254e-16	-7.650809	750	3.095995e-06
1.5000756280863737e-09	-0.0037549005	-0.00094118225	0.7733782	0	0	0.24949983	4.8269305e-16	-4.084565e-16	4.4127486e-16	6.6150727e-16	-2.0233093e-16	-8.38175	750	2.2487077e-06
1.5100423840206133e-09	-0.006211127	0.00063401577	0.77458954	0	0	0.24949001	4.816456e-16	-4.0857688e-16	4.419124e-16	6.6142024e-16	-2.0263974e-16	-8.247795	750	2.7535907e-06
1.5200433965850964e-09	-0.007906686	-0.0006910558	0.77413285	0	0	0.24948	4.873473e-16	-4.088857e-16	4.4196993e-16	6.626708e-16	-2.0251214e-16	-9.066069	750	5.185454e-06
1.5301245244176366e-09	-0.01156786	-0.0011702745	0.7723309	0	0	0.24946979	4.8311715e-16	-4.075302e-16	4.4043225e-16	6.604461e-16	-2.0203258e-16	-9.17043	750	3.288538e-06
1.5400218464944125e-09	-0.007560066	-0.00087182084	0.7722778	0	0	0.24945998	4.9544725e-16	-4.0779292e-16	4.407551e-16	6.600512e-16	-2.0201067e-16	-9.175208	750	4.601112e-06
1.5500519597057078e-09	-0.005984839	-0.0044110287	0.7719259	0	0	0.24944995	4.9065543e-16	-4.077083e-16	4.407085e-16	6.605988e-16	-2.0191051e-16	-8.578803	750	3.811952e-06
1.5600913910940145e-09	-0.0044369204	-0.0036939727	0.77068484	0	0	0.24943994	4.839068e-16	-4.071017e-16	4.399505e-16	6.656348e-16	-2.0157779e-16	-8.605804	750	3.5548917e-06
1.5701305867718387e-09	-0.0047778245	5.068278e-05	0.7695765	0	0	0.24942991	4.97492e-16	-4.0607853e-16	4.3879936e-16	6.63609e-16	-2.0127976e-16	-10.032009	750	2.4506467e-06
1.5800505422206512e-09	-0.00451786	-0.00062906294	0.7691951	0	0	0.24941994	4.8847585e-16	-4.056974e-16	4.3823026e-16	6.603297e-16	-2.0117206e-16	-6.9275107	750	3.6744605e-06
1.5900683952695067e-09	-0.001420642	-0.0031326823	0.76797104	0	0	0.24940993	4.997347e-16	-4.0459646e-16	4.3704735e-16	6.6494543e-16	-2.0084383e-16	-7.6965938	750	3.3276042e-06
1.6000094020284774e-09	0.0004552881	-0.0045086304	0.7679685	0	0	0.24939993	4.844889e-16	-4.0434417e-16	4.3697392e-16	6.6375916e-16	-2.0083514e-16	-9.16665	750	2.6786374e-06
1.610113044786862e-09	0.004970085	-0.0057193497	0.76743126	0	0	0.24938989	4.984635e-16	-4.042351e-16	4.365597e-16	6.594991e-16	-2.0068652e-16	-9.551499	750	2.5587758e-06
1.6201160761371167e-09	0.007814389	-0.0021570239	0.766397	0	0	0.24937989	5.018791e-16	-4.0334086e-16	4.3614772e-16	6.6407886e-16	-2.0040804e-16	-11.021879	750	2.236034e-06
1.6300836020251955e-09	0.008913622	-0.00010349054	0.7667573	0	0	0.24936987	4.964477e-16	-4.0404403e-16	4.3659564e-16	6.6378753e-16	-2.0049425e-16	-7.0191	750	3.2063747e-06
1.6401339304271446e-09	0.008089069	6.235414e-05	0.7662389	0	0	0.24935986	4.984108e-16	-4.0386827e-16	4.3674324e-16	6.699894e-16	-2.0035061e-16	-8.692704	750	4.3075675e-06
1.6500053286614028e-09	0.0057917777	-0.0005972206	0.76603234	0	0	0.24935004	4.988709e-16	-4.042103e-16	4.3692485e-16	6.673266e-16	-2.0028864e-16	-9.280403	750	5.137918e-06
1.660036294316304e-09	0.0067006294	0.00025519077	0.76652986	0	0	0.24934003	4.986577e-16	-4.0519965e-16	4.3797863e-16	6.622033e-16	-2.0041071e-16	-9.103722	750	4.118468e-06
1.6700813789088295e-09	0.005298764	0.0028469656	0.7657945	0	0	0.24933001	4.980545e-16	-4.0449855e-16	4.3728346e-16	6.6520107e-16	-2.0021037e-16	-10.490359	750	2.6322298e-06
1.68007646812449e-09	0.0037344098	0.0022376478	0.76491	0	0	0.24932	4.989551e-16	-4.0339814e-16	4.3602704e-16	6.658984e-16	-1.999711e-16	-8.613227	750	2.8389247e-06
1.6900610459788225e-09	0.003326082	0.0057777134	0.7659599	0	0	0.24930999	5.069511e-16	-4.046194e-16	4.3744606e-16	6.644067e-16	-2.0023758e-16	-11.864615	750	3.683552e-06
1.7000830877621703e-09	-0.0010415282	0.0048908656	0.7682915	0	0	0.24929997	4.8819326e-16	-4.0589348e-16	4.387762e-16	6.6389834e-16	-2.00839e-16	-10.453671	750	2.526076e-06
1.7100993981916849e-09	-0.0020180845	0.007191886	0.76839125	0	0	0.24928996	4.7922837e-16	-4.060441e-16	4.3866216e-16	6.59381e-16	-2.0085702e-16	-9.920145	750	3.484503e-06
1.720152785733731e-09	-0.0047049383	0.0073781814	0.768405	0	0	0.24927977	4.9392926e-16	-4.0597675e-16	4.386238e-16	6.632681e-16	-2.008525e-16	-8.2271185	750	3.5654573e-06
1.730127808544506e-09	-0.006576025	0.005892695	0.76785195	0	0	0.24926993	4.923011e-16	-4.0521532e-16	4.3771055e-16	6.587234e-16	-2.0069992e-16	-9.837647	750	3.0039823e-06
1.7401087630412906e-09	-0.0074946545	0.0015641332	0.7689048	0	0	0.24925993	4.925382e-16	-4.0566173e-16	4.383199e-16	6.620167e-16	-2.0096706e-16	-9.027467	750	2.7157396e-06
1.7501428644297373e-09	-0.007409113	0.0032664775	0.76860344	0	0	0.2492499	5.0286694e-16	-4.048964e-16	4.3801074e-16	6.6368716e-16	-2.0088019e-16	-8.715648	750	2.2301253e-06
1.7600100562679293e-09	-0.008084379	0.0036550472	0.768816	0	0	0.24923995	4.9372333e-16	-4.054306e-16	4.3816705e-16	6.631865e-16	-2.0092781e-16	-10.977694	750	3.1150319e-06